/*--------------------------------*- C++ -*----------------------------------*\
| =========                 |                                                 |
| \\      /  F ield         | OpenFOAM: The Open Source CFD Toolbox           |
|  \\    /   O peration     | Version:  2406                                  |
|   \\  /    A nd           | Website:  www.openfoam.com                      |
|    \\/     M anipulation  |                                                 |
\*---------------------------------------------------------------------------*/
FoamFile
{
    version     2.0;
    format      ascii;
    arch        "LSB;label=32;scalar=64";
    class       volScalarField;
    location    "30/fluidRegion";
    object      dgdt.vapour;
}
// * * * * * * * * * * * * * * * * * * * * * * * * * * * * * * * * * * * * * //

dimensions      [0 0 -1 0 0 0 0];

internalField   nonuniform List<scalar> 
75
(
-3.32494e-119
-5.16371e-121
-2.32006e-119
-8.84895e-120
-1.85763e-119
-3.48515e-119
-1.02125e-119
-1.42222e-119
-6.35763e-121
-1.45269e-119
-7.36779e-121
-9.80175e-120
-3.29377e-119
-2.63074e-119
-3.66655e-120
-8.49118e-120
-2.59275e-120
-1.04915e-119
-1.30668e-119
-5.16544e-120
-8.82527e-119
-4.49958e-119
-3.56598e-119
-3.34261e-119
-4.25165e-120
-8.67177e-120
-1.14436e-119
-4.72975e-120
-9.54988e-119
-9.02735e-120
-1.51599e-120
-3.71518e-119
-8.95468e-119
-1.44613e-120
-1.57767e-120
-1.62717e-120
-2.00646e-119
-2.22876e-120
-7.59085e-119
-4.71568e-120
-3.55726e-120
-3.67563e-120
-4.14409e-120
-6.28541e-119
-1.95347e-119
-6.61948e-120
-1.44251e-119
-1.37707e-119
0.0122592
0.0475939
0.0805393
0.112746
0.144825
0.177256
0.210421
0.24459
0.279935
0.316534
0.354372
0.393339
0.433234
0.473766
0.514566
0.555199
0.595182
0.633204
0.657587
0.683348
0.709824
0.73637
0.762377
0.787292
0.810636
0.83203
0.804307
)
;

boundaryField
{
    inlet
    {
        type            calculated;
        value           uniform -3.32494e-119;
    }
    outlet
    {
        type            calculated;
        value           uniform 0.804307;
    }
    fixedWalls
    {
        type            calculated;
        value           nonuniform List<scalar> 
300
(
-3.32494e-119
-5.16371e-121
-2.32006e-119
-8.84895e-120
-1.85763e-119
-3.48515e-119
-1.02125e-119
-1.42222e-119
-6.35763e-121
-1.45269e-119
-7.36779e-121
-9.80175e-120
-3.29377e-119
-2.63074e-119
-3.66655e-120
-8.49118e-120
-2.59275e-120
-1.04915e-119
-1.30668e-119
-5.16544e-120
-8.82527e-119
-4.49958e-119
-3.56598e-119
-3.34261e-119
-4.25165e-120
-8.67177e-120
-1.14436e-119
-4.72975e-120
-9.54988e-119
-9.02735e-120
-1.51599e-120
-3.71518e-119
-8.95468e-119
-1.44613e-120
-1.57767e-120
-1.62717e-120
-2.00646e-119
-2.22876e-120
-7.59085e-119
-4.71568e-120
-3.55726e-120
-3.67563e-120
-4.14409e-120
-6.28541e-119
-1.95347e-119
-6.61948e-120
-1.44251e-119
-1.37707e-119
0.0122592
0.0475939
0.0805393
0.112746
0.144825
0.177256
0.210421
0.24459
0.279935
0.316534
0.354372
0.393339
0.433234
0.473766
0.514566
0.555199
0.595182
0.633204
0.657587
0.683348
0.709824
0.73637
0.762377
0.787292
0.810636
0.83203
0.804307
-3.32494e-119
-5.16371e-121
-2.32006e-119
-8.84895e-120
-1.85763e-119
-3.48515e-119
-1.02125e-119
-1.42222e-119
-6.35763e-121
-1.45269e-119
-7.36779e-121
-9.80175e-120
-3.29377e-119
-2.63074e-119
-3.66655e-120
-8.49118e-120
-2.59275e-120
-1.04915e-119
-1.30668e-119
-5.16544e-120
-8.82527e-119
-4.49958e-119
-3.56598e-119
-3.34261e-119
-4.25165e-120
-8.67177e-120
-1.14436e-119
-4.72975e-120
-9.54988e-119
-9.02735e-120
-1.51599e-120
-3.71518e-119
-8.95468e-119
-1.44613e-120
-1.57767e-120
-1.62717e-120
-2.00646e-119
-2.22876e-120
-7.59085e-119
-4.71568e-120
-3.55726e-120
-3.67563e-120
-4.14409e-120
-6.28541e-119
-1.95347e-119
-6.61948e-120
-1.44251e-119
-1.37707e-119
0.0122592
0.0475939
0.0805393
0.112746
0.144825
0.177256
0.210421
0.24459
0.279935
0.316534
0.354372
0.393339
0.433234
0.473766
0.514566
0.555199
0.595182
0.633204
0.657587
0.683348
0.709824
0.73637
0.762377
0.787292
0.810636
0.83203
0.804307
-3.32494e-119
-5.16371e-121
-2.32006e-119
-8.84895e-120
-1.85763e-119
-3.48515e-119
-1.02125e-119
-1.42222e-119
-6.35763e-121
-1.45269e-119
-7.36779e-121
-9.80175e-120
-3.29377e-119
-2.63074e-119
-3.66655e-120
-8.49118e-120
-2.59275e-120
-1.04915e-119
-1.30668e-119
-5.16544e-120
-8.82527e-119
-4.49958e-119
-3.56598e-119
-3.34261e-119
-4.25165e-120
-8.67177e-120
-1.14436e-119
-4.72975e-120
-9.54988e-119
-9.02735e-120
-1.51599e-120
-3.71518e-119
-8.95468e-119
-1.44613e-120
-1.57767e-120
-1.62717e-120
-2.00646e-119
-2.22876e-120
-7.59085e-119
-4.71568e-120
-3.55726e-120
-3.67563e-120
-4.14409e-120
-6.28541e-119
-1.95347e-119
-6.61948e-120
-1.44251e-119
-1.37707e-119
0.0122592
0.0475939
0.0805393
0.112746
0.144825
0.177256
0.210421
0.24459
0.279935
0.316534
0.354372
0.393339
0.433234
0.473766
0.514566
0.555199
0.595182
0.633204
0.657587
0.683348
0.709824
0.73637
0.762377
0.787292
0.810636
0.83203
0.804307
-3.32494e-119
-5.16371e-121
-2.32006e-119
-8.84895e-120
-1.85763e-119
-3.48515e-119
-1.02125e-119
-1.42222e-119
-6.35763e-121
-1.45269e-119
-7.36779e-121
-9.80175e-120
-3.29377e-119
-2.63074e-119
-3.66655e-120
-8.49118e-120
-2.59275e-120
-1.04915e-119
-1.30668e-119
-5.16544e-120
-8.82527e-119
-4.49958e-119
-3.56598e-119
-3.34261e-119
-4.25165e-120
-8.67177e-120
-1.14436e-119
-4.72975e-120
-9.54988e-119
-9.02735e-120
-1.51599e-120
-3.71518e-119
-8.95468e-119
-1.44613e-120
-1.57767e-120
-1.62717e-120
-2.00646e-119
-2.22876e-120
-7.59085e-119
-4.71568e-120
-3.55726e-120
-3.67563e-120
-4.14409e-120
-6.28541e-119
-1.95347e-119
-6.61948e-120
-1.44251e-119
-1.37707e-119
0.0122592
0.0475939
0.0805393
0.112746
0.144825
0.177256
0.210421
0.24459
0.279935
0.316534
0.354372
0.393339
0.433234
0.473766
0.514566
0.555199
0.595182
0.633204
0.657587
0.683348
0.709824
0.73637
0.762377
0.787292
0.810636
0.83203
0.804307
)
;
    }
}


// ************************************************************************* //
