/*--------------------------------*- C++ -*----------------------------------*\
| =========                 |                                                 |
| \\      /  F ield         | OpenFOAM: The Open Source CFD Toolbox           |
|  \\    /   O peration     | Version:  2406                                  |
|   \\  /    A nd           | Website:  www.openfoam.com                      |
|    \\/     M anipulation  |                                                 |
\*---------------------------------------------------------------------------*/
FoamFile
{
    version     2.0;
    format      ascii;
    arch        "LSB;label=32;scalar=64";
    class       volTensorField;
    location    "30/fluidRegion";
    object      KdTotU;
}
// * * * * * * * * * * * * * * * * * * * * * * * * * * * * * * * * * * * * * //

dimensions      [1 -2 -2 0 0 0 0];

internalField   nonuniform List<tensor> 
75
(
(539.508 0 0 0 539.508 0 0 0 539.508)
(539.508 0 0 0 539.508 0 0 0 539.508)
(539.508 0 0 0 539.508 0 0 0 539.508)
(539.507 0 0 0 539.507 0 0 0 539.507)
(539.507 0 0 0 539.507 0 0 0 539.507)
(539.287 0 0 0 539.287 0 0 0 539.287)
(539.196 0 0 0 539.196 0 0 0 539.196)
(539.11 0 0 0 539.11 0 0 0 539.11)
(539.028 0 0 0 539.028 0 0 0 539.028)
(538.951 0 0 0 538.951 0 0 0 538.951)
(538.878 0 0 0 538.878 0 0 0 538.878)
(538.809 0 0 0 538.809 0 0 0 538.809)
(538.745 0 0 0 538.745 0 0 0 538.745)
(538.685 0 0 0 538.685 0 0 0 538.685)
(538.629 0 0 0 538.629 0 0 0 538.629)
(538.577 0 0 0 538.577 0 0 0 538.577)
(538.53 0 0 0 538.53 0 0 0 538.53)
(538.487 0 0 0 538.487 0 0 0 538.487)
(538.449 0 0 0 538.449 0 0 0 538.449)
(538.414 0 0 0 538.414 0 0 0 538.414)
(538.384 0 0 0 538.384 0 0 0 538.384)
(538.358 0 0 0 538.358 0 0 0 538.358)
(538.336 0 0 0 538.336 0 0 0 538.336)
(538.318 0 0 0 538.318 0 0 0 538.318)
(538.304 0 0 0 538.304 0 0 0 538.304)
(538.294 0 0 0 538.294 0 0 0 538.294)
(538.288 0 0 0 538.288 0 0 0 538.288)
(538.287 0 0 0 538.287 0 0 0 538.287)
(538.289 0 0 0 538.289 0 0 0 538.289)
(538.295 0 0 0 538.295 0 0 0 538.295)
(538.306 0 0 0 538.306 0 0 0 538.306)
(538.32 0 0 0 538.32 0 0 0 538.32)
(538.338 0 0 0 538.338 0 0 0 538.338)
(538.36 0 0 0 538.36 0 0 0 538.36)
(538.386 0 0 0 538.386 0 0 0 538.386)
(538.416 0 0 0 538.416 0 0 0 538.416)
(538.45 0 0 0 538.45 0 0 0 538.45)
(538.487 0 0 0 538.487 0 0 0 538.487)
(538.529 0 0 0 538.529 0 0 0 538.529)
(538.574 0 0 0 538.574 0 0 0 538.574)
(538.623 0 0 0 538.623 0 0 0 538.623)
(538.676 0 0 0 538.676 0 0 0 538.676)
(538.732 0 0 0 538.732 0 0 0 538.732)
(538.793 0 0 0 538.793 0 0 0 538.793)
(538.857 0 0 0 538.857 0 0 0 538.857)
(538.924 0 0 0 538.924 0 0 0 538.924)
(538.996 0 0 0 538.996 0 0 0 538.996)
(539.071 0 0 0 539.071 0 0 0 539.071)
(541.655 0 0 0 541.655 0 0 0 541.655)
(549.69 0 0 0 549.69 0 0 0 549.69)
(562.677 0 0 0 562.677 0 0 0 562.677)
(579.727 0 0 0 579.727 0 0 0 579.727)
(600.565 0 0 0 600.565 0 0 0 600.565)
(625.072 0 0 0 625.072 0 0 0 625.072)
(653.195 0 0 0 653.195 0 0 0 653.195)
(684.935 0 0 0 684.935 0 0 0 684.935)
(720.324 0 0 0 720.324 0 0 0 720.324)
(759.408 0 0 0 759.408 0 0 0 759.408)
(802.236 0 0 0 802.236 0 0 0 802.236)
(848.846 0 0 0 848.846 0 0 0 848.846)
(899.259 0 0 0 899.259 0 0 0 899.259)
(953.467 0 0 0 953.467 0 0 0 953.467)
(1011.43 0 0 0 1011.43 0 0 0 1011.43)
(1073.05 0 0 0 1073.05 0 0 0 1073.05)
(1138.22 0 0 0 1138.22 0 0 0 1138.22)
(1206.66 0 0 0 1206.66 0 0 0 1206.66)
(1277.25 0 0 0 1277.25 0 0 0 1277.25)
(1349.69 0 0 0 1349.69 0 0 0 1349.69)
(1424.08 0 0 0 1424.08 0 0 0 1424.08)
(1500.45 0 0 0 1500.45 0 0 0 1500.45)
(1578.74 0 0 0 1578.74 0 0 0 1578.74)
(1658.86 0 0 0 1658.86 0 0 0 1658.86)
(1740.64 0 0 0 1740.64 0 0 0 1740.64)
(1823.94 0 0 0 1823.94 0 0 0 1823.94)
(1902.69 0 0 0 1902.69 0 0 0 1902.69)
)
;

boundaryField
{
    inlet
    {
        type            zeroGradient;
    }
    outlet
    {
        type            zeroGradient;
    }
    fixedWalls
    {
        type            zeroGradient;
    }
}


// ************************************************************************* //
