/*--------------------------------*- C++ -*----------------------------------*\
| =========                 |                                                 |
| \\      /  F ield         | OpenFOAM: The Open Source CFD Toolbox           |
|  \\    /   O peration     | Version:  2406                                  |
|   \\  /    A nd           | Website:  www.openfoam.com                      |
|    \\/     M anipulation  |                                                 |
\*---------------------------------------------------------------------------*/
FoamFile
{
    version     2.0;
    format      ascii;
    arch        "LSB;label=32;scalar=64";
    class       volScalarField;
    location    "30/fluidRegion";
    object      p;
}
// * * * * * * * * * * * * * * * * * * * * * * * * * * * * * * * * * * * * * //

dimensions      [1 -1 -2 0 0 0 0];

internalField   nonuniform List<scalar> 
75
(
7.20268e+06
7.20265e+06
7.20263e+06
7.20261e+06
7.20259e+06
7.20257e+06
7.20254e+06
7.20252e+06
7.2025e+06
7.20247e+06
7.20245e+06
7.20242e+06
7.2024e+06
7.20238e+06
7.20235e+06
7.20233e+06
7.2023e+06
7.20228e+06
7.20225e+06
7.20223e+06
7.20221e+06
7.20218e+06
7.20216e+06
7.20213e+06
7.20211e+06
7.20209e+06
7.20206e+06
7.20204e+06
7.20201e+06
7.20199e+06
7.20196e+06
7.20194e+06
7.20192e+06
7.20189e+06
7.20187e+06
7.20184e+06
7.20182e+06
7.2018e+06
7.20177e+06
7.20175e+06
7.20172e+06
7.2017e+06
7.20167e+06
7.20165e+06
7.20162e+06
7.2016e+06
7.20158e+06
7.20155e+06
7.20153e+06
7.2015e+06
7.20148e+06
7.20145e+06
7.20142e+06
7.20139e+06
7.20135e+06
7.20132e+06
7.20128e+06
7.20124e+06
7.2012e+06
7.20115e+06
7.2011e+06
7.20105e+06
7.20099e+06
7.20094e+06
7.20087e+06
7.20081e+06
7.20074e+06
7.20067e+06
7.20059e+06
7.20051e+06
7.20043e+06
7.20034e+06
7.20025e+06
7.20015e+06
7.20005e+06
)
;

boundaryField
{
    inlet
    {
        type            calculated;
        value           uniform 7.20269e+06;
    }
    outlet
    {
        type            calculated;
        value           uniform 7.2e+06;
    }
    fixedWalls
    {
        type            calculated;
        value           nonuniform List<scalar> 
300
(
7.20268e+06
7.20265e+06
7.20263e+06
7.20261e+06
7.20259e+06
7.20257e+06
7.20254e+06
7.20252e+06
7.2025e+06
7.20247e+06
7.20245e+06
7.20242e+06
7.2024e+06
7.20238e+06
7.20235e+06
7.20233e+06
7.2023e+06
7.20228e+06
7.20225e+06
7.20223e+06
7.20221e+06
7.20218e+06
7.20216e+06
7.20213e+06
7.20211e+06
7.20209e+06
7.20206e+06
7.20204e+06
7.20201e+06
7.20199e+06
7.20196e+06
7.20194e+06
7.20192e+06
7.20189e+06
7.20187e+06
7.20184e+06
7.20182e+06
7.2018e+06
7.20177e+06
7.20175e+06
7.20172e+06
7.2017e+06
7.20167e+06
7.20165e+06
7.20162e+06
7.2016e+06
7.20158e+06
7.20155e+06
7.20153e+06
7.2015e+06
7.20148e+06
7.20145e+06
7.20142e+06
7.20139e+06
7.20135e+06
7.20132e+06
7.20128e+06
7.20124e+06
7.2012e+06
7.20115e+06
7.2011e+06
7.20105e+06
7.20099e+06
7.20094e+06
7.20087e+06
7.20081e+06
7.20074e+06
7.20067e+06
7.20059e+06
7.20051e+06
7.20043e+06
7.20034e+06
7.20025e+06
7.20015e+06
7.20005e+06
7.20268e+06
7.20265e+06
7.20263e+06
7.20261e+06
7.20259e+06
7.20257e+06
7.20254e+06
7.20252e+06
7.2025e+06
7.20247e+06
7.20245e+06
7.20242e+06
7.2024e+06
7.20238e+06
7.20235e+06
7.20233e+06
7.2023e+06
7.20228e+06
7.20225e+06
7.20223e+06
7.20221e+06
7.20218e+06
7.20216e+06
7.20213e+06
7.20211e+06
7.20209e+06
7.20206e+06
7.20204e+06
7.20201e+06
7.20199e+06
7.20196e+06
7.20194e+06
7.20192e+06
7.20189e+06
7.20187e+06
7.20184e+06
7.20182e+06
7.2018e+06
7.20177e+06
7.20175e+06
7.20172e+06
7.2017e+06
7.20167e+06
7.20165e+06
7.20162e+06
7.2016e+06
7.20158e+06
7.20155e+06
7.20153e+06
7.2015e+06
7.20148e+06
7.20145e+06
7.20142e+06
7.20139e+06
7.20135e+06
7.20132e+06
7.20128e+06
7.20124e+06
7.2012e+06
7.20115e+06
7.2011e+06
7.20105e+06
7.20099e+06
7.20094e+06
7.20087e+06
7.20081e+06
7.20074e+06
7.20067e+06
7.20059e+06
7.20051e+06
7.20043e+06
7.20034e+06
7.20025e+06
7.20015e+06
7.20005e+06
7.20268e+06
7.20265e+06
7.20263e+06
7.20261e+06
7.20259e+06
7.20257e+06
7.20254e+06
7.20252e+06
7.2025e+06
7.20247e+06
7.20245e+06
7.20242e+06
7.2024e+06
7.20238e+06
7.20235e+06
7.20233e+06
7.2023e+06
7.20228e+06
7.20225e+06
7.20223e+06
7.20221e+06
7.20218e+06
7.20216e+06
7.20213e+06
7.20211e+06
7.20209e+06
7.20206e+06
7.20204e+06
7.20201e+06
7.20199e+06
7.20196e+06
7.20194e+06
7.20192e+06
7.20189e+06
7.20187e+06
7.20184e+06
7.20182e+06
7.2018e+06
7.20177e+06
7.20175e+06
7.20172e+06
7.2017e+06
7.20167e+06
7.20165e+06
7.20162e+06
7.2016e+06
7.20158e+06
7.20155e+06
7.20153e+06
7.2015e+06
7.20148e+06
7.20145e+06
7.20142e+06
7.20139e+06
7.20135e+06
7.20132e+06
7.20128e+06
7.20124e+06
7.2012e+06
7.20115e+06
7.2011e+06
7.20105e+06
7.20099e+06
7.20094e+06
7.20087e+06
7.20081e+06
7.20074e+06
7.20067e+06
7.20059e+06
7.20051e+06
7.20043e+06
7.20034e+06
7.20025e+06
7.20015e+06
7.20005e+06
7.20268e+06
7.20265e+06
7.20263e+06
7.20261e+06
7.20259e+06
7.20257e+06
7.20254e+06
7.20252e+06
7.2025e+06
7.20247e+06
7.20245e+06
7.20242e+06
7.2024e+06
7.20238e+06
7.20235e+06
7.20233e+06
7.2023e+06
7.20228e+06
7.20225e+06
7.20223e+06
7.20221e+06
7.20218e+06
7.20216e+06
7.20213e+06
7.20211e+06
7.20209e+06
7.20206e+06
7.20204e+06
7.20201e+06
7.20199e+06
7.20196e+06
7.20194e+06
7.20192e+06
7.20189e+06
7.20187e+06
7.20184e+06
7.20182e+06
7.2018e+06
7.20177e+06
7.20175e+06
7.20172e+06
7.2017e+06
7.20167e+06
7.20165e+06
7.20162e+06
7.2016e+06
7.20158e+06
7.20155e+06
7.20153e+06
7.2015e+06
7.20148e+06
7.20145e+06
7.20142e+06
7.20139e+06
7.20135e+06
7.20132e+06
7.20128e+06
7.20124e+06
7.2012e+06
7.20115e+06
7.2011e+06
7.20105e+06
7.20099e+06
7.20094e+06
7.20087e+06
7.20081e+06
7.20074e+06
7.20067e+06
7.20059e+06
7.20051e+06
7.20043e+06
7.20034e+06
7.20025e+06
7.20015e+06
7.20005e+06
)
;
    }
}


// ************************************************************************* //
