/*--------------------------------*- C++ -*----------------------------------*\
| =========                 |                                                 |
| \\      /  F ield         | OpenFOAM: The Open Source CFD Toolbox           |
|  \\    /   O peration     | Version:  2406                                  |
|   \\  /    A nd           | Website:  www.openfoam.com                      |
|    \\/     M anipulation  |                                                 |
\*---------------------------------------------------------------------------*/
FoamFile
{
    version     2.0;
    format      ascii;
    arch        "LSB;label=32;scalar=64";
    class       volScalarField;
    location    "0.6/fluidRegion";
    object      dgdt.vapour;
}
// * * * * * * * * * * * * * * * * * * * * * * * * * * * * * * * * * * * * * //

dimensions      [0 0 -1 0 0 0 0];

internalField   nonuniform List<scalar> 
75
(
-0
-0
-0
-0
-0
-0
-0
-0
-0
-0
-0
-0
-0
-0
-0
-0
-5.70584e-21
-8.27115e-20
-1.6897e-19
-3.1793e-19
-4.85677e-19
-6.91362e-19
-8.70421e-19
-9.71588e-19
-1.27442e-18
-1.73552e-18
-2.26149e-18
-2.8501e-18
-3.47622e-18
-4.11922e-18
-4.77098e-18
-5.41902e-18
-6.04977e-18
-6.65323e-18
-7.21824e-18
-7.74327e-18
-8.21495e-18
-8.58446e-18
-8.90724e-18
-9.19286e-18
-9.46819e-18
0.17115
0.337307
0.494452
0.643873
0.786007
0.922528
1.05477
1.18365
1.30983
1.43376
1.55572
1.67583
1.79411
1.91044
2.02464
2.13644
2.24552
2.35153
2.45412
2.5529
2.67894
2.79189
2.87092
2.93349
2.98625
3.03233
3.05069
3.05881
3.06638
3.0736
3.08061
3.08749
3.09426
3.10664
)
;

boundaryField
{
    inlet
    {
        type            calculated;
        value           uniform -0;
    }
    outlet
    {
        type            calculated;
        value           uniform 3.10664;
    }
    fixedWalls
    {
        type            calculated;
        value           nonuniform List<scalar> 
300
(
-0
-0
-0
-0
-0
-0
-0
-0
-0
-0
-0
-0
-0
-0
-0
-0
-5.70584e-21
-8.27115e-20
-1.6897e-19
-3.1793e-19
-4.85677e-19
-6.91362e-19
-8.70421e-19
-9.71588e-19
-1.27442e-18
-1.73552e-18
-2.26149e-18
-2.8501e-18
-3.47622e-18
-4.11922e-18
-4.77098e-18
-5.41902e-18
-6.04977e-18
-6.65323e-18
-7.21824e-18
-7.74327e-18
-8.21495e-18
-8.58446e-18
-8.90724e-18
-9.19286e-18
-9.46819e-18
0.17115
0.337307
0.494452
0.643873
0.786007
0.922528
1.05477
1.18365
1.30983
1.43376
1.55572
1.67583
1.79411
1.91044
2.02464
2.13644
2.24552
2.35153
2.45412
2.5529
2.67894
2.79189
2.87092
2.93349
2.98625
3.03233
3.05069
3.05881
3.06638
3.0736
3.08061
3.08749
3.09426
3.10664
-0
-0
-0
-0
-0
-0
-0
-0
-0
-0
-0
-0
-0
-0
-0
-0
-5.70584e-21
-8.27115e-20
-1.6897e-19
-3.1793e-19
-4.85677e-19
-6.91362e-19
-8.70421e-19
-9.71588e-19
-1.27442e-18
-1.73552e-18
-2.26149e-18
-2.8501e-18
-3.47622e-18
-4.11922e-18
-4.77098e-18
-5.41902e-18
-6.04977e-18
-6.65323e-18
-7.21824e-18
-7.74327e-18
-8.21495e-18
-8.58446e-18
-8.90724e-18
-9.19286e-18
-9.46819e-18
0.17115
0.337307
0.494452
0.643873
0.786007
0.922528
1.05477
1.18365
1.30983
1.43376
1.55572
1.67583
1.79411
1.91044
2.02464
2.13644
2.24552
2.35153
2.45412
2.5529
2.67894
2.79189
2.87092
2.93349
2.98625
3.03233
3.05069
3.05881
3.06638
3.0736
3.08061
3.08749
3.09426
3.10664
-0
-0
-0
-0
-0
-0
-0
-0
-0
-0
-0
-0
-0
-0
-0
-0
-5.70584e-21
-8.27115e-20
-1.6897e-19
-3.1793e-19
-4.85677e-19
-6.91362e-19
-8.70421e-19
-9.71588e-19
-1.27442e-18
-1.73552e-18
-2.26149e-18
-2.8501e-18
-3.47622e-18
-4.11922e-18
-4.77098e-18
-5.41902e-18
-6.04977e-18
-6.65323e-18
-7.21824e-18
-7.74327e-18
-8.21495e-18
-8.58446e-18
-8.90724e-18
-9.19286e-18
-9.46819e-18
0.17115
0.337307
0.494452
0.643873
0.786007
0.922528
1.05477
1.18365
1.30983
1.43376
1.55572
1.67583
1.79411
1.91044
2.02464
2.13644
2.24552
2.35153
2.45412
2.5529
2.67894
2.79189
2.87092
2.93349
2.98625
3.03233
3.05069
3.05881
3.06638
3.0736
3.08061
3.08749
3.09426
3.10664
-0
-0
-0
-0
-0
-0
-0
-0
-0
-0
-0
-0
-0
-0
-0
-0
-5.70584e-21
-8.27115e-20
-1.6897e-19
-3.1793e-19
-4.85677e-19
-6.91362e-19
-8.70421e-19
-9.71588e-19
-1.27442e-18
-1.73552e-18
-2.26149e-18
-2.8501e-18
-3.47622e-18
-4.11922e-18
-4.77098e-18
-5.41902e-18
-6.04977e-18
-6.65323e-18
-7.21824e-18
-7.74327e-18
-8.21495e-18
-8.58446e-18
-8.90724e-18
-9.19286e-18
-9.46819e-18
0.17115
0.337307
0.494452
0.643873
0.786007
0.922528
1.05477
1.18365
1.30983
1.43376
1.55572
1.67583
1.79411
1.91044
2.02464
2.13644
2.24552
2.35153
2.45412
2.5529
2.67894
2.79189
2.87092
2.93349
2.98625
3.03233
3.05069
3.05881
3.06638
3.0736
3.08061
3.08749
3.09426
3.10664
)
;
    }
}


// ************************************************************************* //
