/*--------------------------------*- C++ -*----------------------------------*\
| =========                 |                                                 |
| \\      /  F ield         | OpenFOAM: The Open Source CFD Toolbox           |
|  \\    /   O peration     | Version:  2406                                  |
|   \\  /    A nd           | Website:  www.openfoam.com                      |
|    \\/     M anipulation  |                                                 |
\*---------------------------------------------------------------------------*/
FoamFile
{
    version     2.0;
    format      ascii;
    arch        "LSB;label=32;scalar=64";
    class       volTensorField;
    location    "0.6/fluidRegion";
    object      Kd.liquid.structure;
}
// * * * * * * * * * * * * * * * * * * * * * * * * * * * * * * * * * * * * * //

dimensions      [1 -3 -1 0 0 0 0];

internalField   nonuniform List<tensor> 
75
(
(1136.21 0 0 0 1136.21 0 0 0 1136.21)
(1136.22 0 0 0 1136.22 0 0 0 1136.22)
(1136.22 0 0 0 1136.22 0 0 0 1136.22)
(1136.23 0 0 0 1136.23 0 0 0 1136.23)
(1136.23 0 0 0 1136.23 0 0 0 1136.23)
(1134.64 0 0 0 1134.64 0 0 0 1134.64)
(1133.9 0 0 0 1133.9 0 0 0 1133.9)
(1133.16 0 0 0 1133.16 0 0 0 1133.16)
(1132.42 0 0 0 1132.42 0 0 0 1132.42)
(1131.67 0 0 0 1131.67 0 0 0 1131.67)
(1130.93 0 0 0 1130.93 0 0 0 1130.93)
(1130.18 0 0 0 1130.18 0 0 0 1130.18)
(1129.43 0 0 0 1129.43 0 0 0 1129.43)
(1128.68 0 0 0 1128.68 0 0 0 1128.68)
(1127.93 0 0 0 1127.93 0 0 0 1127.93)
(1127.18 0 0 0 1127.18 0 0 0 1127.18)
(1126.42 0 0 0 1126.42 0 0 0 1126.42)
(1125.67 0 0 0 1125.67 0 0 0 1125.67)
(1124.91 0 0 0 1124.91 0 0 0 1124.91)
(1124.15 0 0 0 1124.15 0 0 0 1124.15)
(1123.38 0 0 0 1123.38 0 0 0 1123.38)
(1122.62 0 0 0 1122.62 0 0 0 1122.62)
(1121.85 0 0 0 1121.85 0 0 0 1121.85)
(1121.08 0 0 0 1121.08 0 0 0 1121.08)
(1120.32 0 0 0 1120.32 0 0 0 1120.32)
(1119.54 0 0 0 1119.54 0 0 0 1119.54)
(1118.77 0 0 0 1118.77 0 0 0 1118.77)
(1118 0 0 0 1118 0 0 0 1118)
(1117.22 0 0 0 1117.22 0 0 0 1117.22)
(1116.44 0 0 0 1116.44 0 0 0 1116.44)
(1115.66 0 0 0 1115.66 0 0 0 1115.66)
(1114.88 0 0 0 1114.88 0 0 0 1114.88)
(1114.09 0 0 0 1114.09 0 0 0 1114.09)
(1113.31 0 0 0 1113.31 0 0 0 1113.31)
(1112.52 0 0 0 1112.52 0 0 0 1112.52)
(1111.73 0 0 0 1111.73 0 0 0 1111.73)
(1110.94 0 0 0 1110.94 0 0 0 1110.94)
(1110.15 0 0 0 1110.15 0 0 0 1110.15)
(1109.35 0 0 0 1109.35 0 0 0 1109.35)
(1108.55 0 0 0 1108.55 0 0 0 1108.55)
(1107.76 0 0 0 1107.76 0 0 0 1107.76)
(1133.77 0 0 0 1133.77 0 0 0 1133.77)
(1180.15 0 0 0 1180.15 0 0 0 1180.15)
(1242.2 0 0 0 1242.2 0 0 0 1242.2)
(1316.67 0 0 0 1316.67 0 0 0 1316.67)
(1402.91 0 0 0 1402.91 0 0 0 1402.91)
(1499.45 0 0 0 1499.45 0 0 0 1499.45)
(1604.94 0 0 0 1604.94 0 0 0 1604.94)
(1718.39 0 0 0 1718.39 0 0 0 1718.39)
(1838.92 0 0 0 1838.92 0 0 0 1838.92)
(1965.77 0 0 0 1965.77 0 0 0 1965.77)
(2098.27 0 0 0 2098.27 0 0 0 2098.27)
(2235.8 0 0 0 2235.8 0 0 0 2235.8)
(2377.78 0 0 0 2377.78 0 0 0 2377.78)
(2523.7 0 0 0 2523.7 0 0 0 2523.7)
(2673.03 0 0 0 2673.03 0 0 0 2673.03)
(2825.31 0 0 0 2825.31 0 0 0 2825.31)
(2980.06 0 0 0 2980.06 0 0 0 2980.06)
(3136.87 0 0 0 3136.87 0 0 0 3136.87)
(3295.29 0 0 0 3295.29 0 0 0 3295.29)
(3454.97 0 0 0 3454.97 0 0 0 3454.97)
(3617 0 0 0 3617 0 0 0 3617)
(3780.87 0 0 0 3780.87 0 0 0 3780.87)
(3944.74 0 0 0 3944.74 0 0 0 3944.74)
(4107.45 0 0 0 4107.45 0 0 0 4107.45)
(4268.44 0 0 0 4268.44 0 0 0 4268.44)
(4427.44 0 0 0 4427.44 0 0 0 4427.44)
(4583.44 0 0 0 4583.44 0 0 0 4583.44)
(4735.93 0 0 0 4735.93 0 0 0 4735.93)
(4884.98 0 0 0 4884.98 0 0 0 4884.98)
(5030.81 0 0 0 5030.81 0 0 0 5030.81)
(5173.62 0 0 0 5173.62 0 0 0 5173.62)
(5313.57 0 0 0 5313.57 0 0 0 5313.57)
(5450.85 0 0 0 5450.85 0 0 0 5450.85)
(5585.76 0 0 0 5585.76 0 0 0 5585.76)
)
;

boundaryField
{
    inlet
    {
        type            zeroGradient;
    }
    outlet
    {
        type            zeroGradient;
    }
    fixedWalls
    {
        type            zeroGradient;
    }
}


// ************************************************************************* //
