/*--------------------------------*- C++ -*----------------------------------*\
| =========                 |                                                 |
| \\      /  F ield         | OpenFOAM: The Open Source CFD Toolbox           |
|  \\    /   O peration     | Version:  2406                                  |
|   \\  /    A nd           | Website:  www.openfoam.com                      |
|    \\/     M anipulation  |                                                 |
\*---------------------------------------------------------------------------*/
FoamFile
{
    version     2.0;
    format      ascii;
    arch        "LSB;label=32;scalar=64";
    class       volTensorField;
    location    "0.6/fluidRegion";
    object      KdTotU;
}
// * * * * * * * * * * * * * * * * * * * * * * * * * * * * * * * * * * * * * //

dimensions      [1 -2 -2 0 0 0 0];

internalField   nonuniform List<tensor> 
75
(
(5075.59 0 0 0 5075.59 0 0 0 5075.59)
(5075.62 0 0 0 5075.62 0 0 0 5075.62)
(5075.66 0 0 0 5075.66 0 0 0 5075.66)
(5075.7 0 0 0 5075.7 0 0 0 5075.7)
(5075.74 0 0 0 5075.74 0 0 0 5075.74)
(5073.76 0 0 0 5073.76 0 0 0 5073.76)
(5080.71 0 0 0 5080.71 0 0 0 5080.71)
(5087.71 0 0 0 5087.71 0 0 0 5087.71)
(5094.77 0 0 0 5094.77 0 0 0 5094.77)
(5101.88 0 0 0 5101.88 0 0 0 5101.88)
(5109.04 0 0 0 5109.04 0 0 0 5109.04)
(5116.26 0 0 0 5116.26 0 0 0 5116.26)
(5123.53 0 0 0 5123.53 0 0 0 5123.53)
(5130.85 0 0 0 5130.85 0 0 0 5130.85)
(5138.21 0 0 0 5138.21 0 0 0 5138.21)
(5145.63 0 0 0 5145.63 0 0 0 5145.63)
(5153.09 0 0 0 5153.09 0 0 0 5153.09)
(5160.6 0 0 0 5160.6 0 0 0 5160.6)
(5168.15 0 0 0 5168.15 0 0 0 5168.15)
(5175.75 0 0 0 5175.75 0 0 0 5175.75)
(5183.39 0 0 0 5183.39 0 0 0 5183.39)
(5191.07 0 0 0 5191.07 0 0 0 5191.07)
(5198.79 0 0 0 5198.79 0 0 0 5198.79)
(5206.55 0 0 0 5206.55 0 0 0 5206.55)
(5214.35 0 0 0 5214.35 0 0 0 5214.35)
(5222.19 0 0 0 5222.19 0 0 0 5222.19)
(5230.06 0 0 0 5230.06 0 0 0 5230.06)
(5237.97 0 0 0 5237.97 0 0 0 5237.97)
(5245.91 0 0 0 5245.91 0 0 0 5245.91)
(5253.89 0 0 0 5253.89 0 0 0 5253.89)
(5261.89 0 0 0 5261.89 0 0 0 5261.89)
(5269.92 0 0 0 5269.92 0 0 0 5269.92)
(5277.99 0 0 0 5277.99 0 0 0 5277.99)
(5286.08 0 0 0 5286.08 0 0 0 5286.08)
(5294.19 0 0 0 5294.19 0 0 0 5294.19)
(5302.33 0 0 0 5302.33 0 0 0 5302.33)
(5310.5 0 0 0 5310.5 0 0 0 5310.5)
(5318.69 0 0 0 5318.69 0 0 0 5318.69)
(5326.9 0 0 0 5326.9 0 0 0 5326.9)
(5335.12 0 0 0 5335.12 0 0 0 5335.12)
(5343.37 0 0 0 5343.37 0 0 0 5343.37)
(5484.93 0 0 0 5484.93 0 0 0 5484.93)
(5733.17 0 0 0 5733.17 0 0 0 5733.17)
(6066.36 0 0 0 6066.36 0 0 0 6066.36)
(6470.09 0 0 0 6470.09 0 0 0 6470.09)
(6942.28 0 0 0 6942.28 0 0 0 6942.28)
(7477.32 0 0 0 7477.32 0 0 0 7477.32)
(8070.3 0 0 0 8070.3 0 0 0 8070.3)
(8717.86 0 0 0 8717.86 0 0 0 8717.86)
(9417.2 0 0 0 9417.2 0 0 0 9417.2)
(10166 0 0 0 10166 0 0 0 10166)
(10962.4 0 0 0 10962.4 0 0 0 10962.4)
(11804.4 0 0 0 11804.4 0 0 0 11804.4)
(12690.4 0 0 0 12690.4 0 0 0 12690.4)
(13618.6 0 0 0 13618.6 0 0 0 13618.6)
(14587.3 0 0 0 14587.3 0 0 0 14587.3)
(15594.7 0 0 0 15594.7 0 0 0 15594.7)
(16638.9 0 0 0 16638.9 0 0 0 16638.9)
(17718 0 0 0 17718 0 0 0 17718)
(18829.8 0 0 0 18829.8 0 0 0 18829.8)
(19972.4 0 0 0 19972.4 0 0 0 19972.4)
(21153.2 0 0 0 21153.2 0 0 0 21153.2)
(22370.2 0 0 0 22370.2 0 0 0 22370.2)
(23610.8 0 0 0 23610.8 0 0 0 23610.8)
(24865.8 0 0 0 24865.8 0 0 0 24865.8)
(26130.4 0 0 0 26130.4 0 0 0 26130.4)
(27401.4 0 0 0 27401.4 0 0 0 27401.4)
(28670.3 0 0 0 28670.3 0 0 0 28670.3)
(29931.3 0 0 0 29931.3 0 0 0 29931.3)
(31183.5 0 0 0 31183.5 0 0 0 31183.5)
(32427.2 0 0 0 32427.2 0 0 0 32427.2)
(33662.5 0 0 0 33662.5 0 0 0 33662.5)
(34889.6 0 0 0 34889.6 0 0 0 34889.6)
(36109.8 0 0 0 36109.8 0 0 0 36109.8)
(37311.6 0 0 0 37311.6 0 0 0 37311.6)
)
;

boundaryField
{
    inlet
    {
        type            zeroGradient;
    }
    outlet
    {
        type            zeroGradient;
    }
    fixedWalls
    {
        type            zeroGradient;
    }
}


// ************************************************************************* //
