/*--------------------------------*- C++ -*----------------------------------*\
| =========                 |                                                 |
| \\      /  F ield         | OpenFOAM: The Open Source CFD Toolbox           |
|  \\    /   O peration     | Version:  2406                                  |
|   \\  /    A nd           | Website:  www.openfoam.com                      |
|    \\/     M anipulation  |                                                 |
\*---------------------------------------------------------------------------*/
FoamFile
{
    version     2.0;
    format      ascii;
    arch        "LSB;label=32;scalar=64";
    class       volScalarField;
    location    "0.6/fluidRegion";
    object      p;
}
// * * * * * * * * * * * * * * * * * * * * * * * * * * * * * * * * * * * * * //

dimensions      [1 -1 -2 0 0 0 0];

internalField   nonuniform List<scalar> 
75
(
1.47712e+07
1.4771e+07
1.47708e+07
1.47705e+07
1.47703e+07
1.477e+07
1.47698e+07
1.47695e+07
1.47692e+07
1.47689e+07
1.47686e+07
1.47683e+07
1.4768e+07
1.47677e+07
1.47674e+07
1.47671e+07
1.47668e+07
1.47665e+07
1.47662e+07
1.47659e+07
1.47656e+07
1.47653e+07
1.4765e+07
1.47647e+07
1.47644e+07
1.47641e+07
1.47638e+07
1.47634e+07
1.47631e+07
1.47628e+07
1.47625e+07
1.47622e+07
1.47619e+07
1.47616e+07
1.47612e+07
1.47609e+07
1.47606e+07
1.47603e+07
1.476e+07
1.47597e+07
1.47593e+07
1.4759e+07
1.47587e+07
1.47583e+07
1.47578e+07
1.47574e+07
1.47569e+07
1.47564e+07
1.47558e+07
1.47552e+07
1.47545e+07
1.47538e+07
1.4753e+07
1.47522e+07
1.47513e+07
1.47504e+07
1.47494e+07
1.47484e+07
1.47473e+07
1.47461e+07
1.47449e+07
1.47436e+07
1.47423e+07
1.47408e+07
1.47394e+07
1.47378e+07
1.47362e+07
1.47345e+07
1.47327e+07
1.47309e+07
1.4729e+07
1.47271e+07
1.47251e+07
1.4723e+07
1.47209e+07
)
;

boundaryField
{
    inlet
    {
        type            calculated;
        value           uniform 1.47714e+07;
    }
    outlet
    {
        type            calculated;
        value           uniform 1.47198e+07;
    }
    fixedWalls
    {
        type            calculated;
        value           nonuniform List<scalar> 
300
(
1.47712e+07
1.4771e+07
1.47708e+07
1.47705e+07
1.47703e+07
1.477e+07
1.47698e+07
1.47695e+07
1.47692e+07
1.47689e+07
1.47686e+07
1.47683e+07
1.4768e+07
1.47677e+07
1.47674e+07
1.47671e+07
1.47668e+07
1.47665e+07
1.47662e+07
1.47659e+07
1.47656e+07
1.47653e+07
1.4765e+07
1.47647e+07
1.47644e+07
1.47641e+07
1.47638e+07
1.47634e+07
1.47631e+07
1.47628e+07
1.47625e+07
1.47622e+07
1.47619e+07
1.47616e+07
1.47612e+07
1.47609e+07
1.47606e+07
1.47603e+07
1.476e+07
1.47597e+07
1.47593e+07
1.4759e+07
1.47587e+07
1.47583e+07
1.47578e+07
1.47574e+07
1.47569e+07
1.47564e+07
1.47558e+07
1.47552e+07
1.47545e+07
1.47538e+07
1.4753e+07
1.47522e+07
1.47513e+07
1.47504e+07
1.47494e+07
1.47484e+07
1.47473e+07
1.47461e+07
1.47449e+07
1.47436e+07
1.47423e+07
1.47408e+07
1.47394e+07
1.47378e+07
1.47362e+07
1.47345e+07
1.47327e+07
1.47309e+07
1.4729e+07
1.47271e+07
1.47251e+07
1.4723e+07
1.47209e+07
1.47712e+07
1.4771e+07
1.47708e+07
1.47705e+07
1.47703e+07
1.477e+07
1.47698e+07
1.47695e+07
1.47692e+07
1.47689e+07
1.47686e+07
1.47683e+07
1.4768e+07
1.47677e+07
1.47674e+07
1.47671e+07
1.47668e+07
1.47665e+07
1.47662e+07
1.47659e+07
1.47656e+07
1.47653e+07
1.4765e+07
1.47647e+07
1.47644e+07
1.47641e+07
1.47638e+07
1.47634e+07
1.47631e+07
1.47628e+07
1.47625e+07
1.47622e+07
1.47619e+07
1.47616e+07
1.47612e+07
1.47609e+07
1.47606e+07
1.47603e+07
1.476e+07
1.47597e+07
1.47593e+07
1.4759e+07
1.47587e+07
1.47583e+07
1.47578e+07
1.47574e+07
1.47569e+07
1.47564e+07
1.47558e+07
1.47552e+07
1.47545e+07
1.47538e+07
1.4753e+07
1.47522e+07
1.47513e+07
1.47504e+07
1.47494e+07
1.47484e+07
1.47473e+07
1.47461e+07
1.47449e+07
1.47436e+07
1.47423e+07
1.47408e+07
1.47394e+07
1.47378e+07
1.47362e+07
1.47345e+07
1.47327e+07
1.47309e+07
1.4729e+07
1.47271e+07
1.47251e+07
1.4723e+07
1.47209e+07
1.47712e+07
1.4771e+07
1.47708e+07
1.47705e+07
1.47703e+07
1.477e+07
1.47698e+07
1.47695e+07
1.47692e+07
1.47689e+07
1.47686e+07
1.47683e+07
1.4768e+07
1.47677e+07
1.47674e+07
1.47671e+07
1.47668e+07
1.47665e+07
1.47662e+07
1.47659e+07
1.47656e+07
1.47653e+07
1.4765e+07
1.47647e+07
1.47644e+07
1.47641e+07
1.47638e+07
1.47634e+07
1.47631e+07
1.47628e+07
1.47625e+07
1.47622e+07
1.47619e+07
1.47616e+07
1.47612e+07
1.47609e+07
1.47606e+07
1.47603e+07
1.476e+07
1.47597e+07
1.47593e+07
1.4759e+07
1.47587e+07
1.47583e+07
1.47578e+07
1.47574e+07
1.47569e+07
1.47564e+07
1.47558e+07
1.47552e+07
1.47545e+07
1.47538e+07
1.4753e+07
1.47522e+07
1.47513e+07
1.47504e+07
1.47494e+07
1.47484e+07
1.47473e+07
1.47461e+07
1.47449e+07
1.47436e+07
1.47423e+07
1.47408e+07
1.47394e+07
1.47378e+07
1.47362e+07
1.47345e+07
1.47327e+07
1.47309e+07
1.4729e+07
1.47271e+07
1.47251e+07
1.4723e+07
1.47209e+07
1.47712e+07
1.4771e+07
1.47708e+07
1.47705e+07
1.47703e+07
1.477e+07
1.47698e+07
1.47695e+07
1.47692e+07
1.47689e+07
1.47686e+07
1.47683e+07
1.4768e+07
1.47677e+07
1.47674e+07
1.47671e+07
1.47668e+07
1.47665e+07
1.47662e+07
1.47659e+07
1.47656e+07
1.47653e+07
1.4765e+07
1.47647e+07
1.47644e+07
1.47641e+07
1.47638e+07
1.47634e+07
1.47631e+07
1.47628e+07
1.47625e+07
1.47622e+07
1.47619e+07
1.47616e+07
1.47612e+07
1.47609e+07
1.47606e+07
1.47603e+07
1.476e+07
1.47597e+07
1.47593e+07
1.4759e+07
1.47587e+07
1.47583e+07
1.47578e+07
1.47574e+07
1.47569e+07
1.47564e+07
1.47558e+07
1.47552e+07
1.47545e+07
1.47538e+07
1.4753e+07
1.47522e+07
1.47513e+07
1.47504e+07
1.47494e+07
1.47484e+07
1.47473e+07
1.47461e+07
1.47449e+07
1.47436e+07
1.47423e+07
1.47408e+07
1.47394e+07
1.47378e+07
1.47362e+07
1.47345e+07
1.47327e+07
1.47309e+07
1.4729e+07
1.47271e+07
1.47251e+07
1.4723e+07
1.47209e+07
)
;
    }
}


// ************************************************************************* //
