/*--------------------------------*- C++ -*----------------------------------*\
| =========                 |                                                 |
| \\      /  F ield         | OpenFOAM: The Open Source CFD Toolbox           |
|  \\    /   O peration     | Version:  2406                                  |
|   \\  /    A nd           | Website:  www.openfoam.com                      |
|    \\/     M anipulation  |                                                 |
\*---------------------------------------------------------------------------*/
FoamFile
{
    version     2.0;
    format      ascii;
    arch        "LSB;label=32;scalar=64";
    class       volScalarField;
    location    "30/fluidRegion";
    object      alphaRhoMagU.vapour;
}
// * * * * * * * * * * * * * * * * * * * * * * * * * * * * * * * * * * * * * //

dimensions      [1 -2 -1 0 0 0 0];

internalField   nonuniform List<scalar> 
70
(
11.9954
12.369
12.7621
13.1501
13.5406
13.9314
14.3232
14.7158
15.1093
15.5037
15.8989
16.2951
16.692
17.0899
17.4886
17.8881
18.2885
18.6897
19.0917
19.4946
19.8982
20.3027
20.7079
21.1139
21.5207
21.9282
22.3365
22.7456
23.1554
23.5659
23.9771
24.389
24.8017
25.215
25.6291
26.0438
26.4592
26.8752
27.2919
27.7093
28.1273
28.5459
28.9652
29.3851
29.8056
30.2267
30.6485
31.0708
31.4937
31.9171
32.3412
32.7658
33.1909
33.6166
34.0429
34.4696
34.8969
35.3248
35.7531
36.1819
36.6113
37.0414
37.4724
37.9042
38.3368
38.7701
39.2042
39.639
40.0746
40.5118
)
;

boundaryField
{
    inlet
    {
        type            calculated;
        value           uniform 11.6839;
    }
    outlet
    {
        type            calculated;
        value           uniform 40.5114;
    }
    fixedWalls
    {
        type            calculated;
        value           nonuniform List<scalar> 
280
(
11.9954
12.369
12.7621
13.1501
13.5406
13.9314
14.3232
14.7158
15.1093
15.5037
15.8989
16.2951
16.692
17.0899
17.4886
17.8881
18.2885
18.6897
19.0917
19.4946
19.8982
20.3027
20.7079
21.1139
21.5207
21.9282
22.3365
22.7456
23.1554
23.5659
23.9771
24.389
24.8017
25.215
25.6291
26.0438
26.4592
26.8752
27.2919
27.7093
28.1273
28.5459
28.9652
29.3851
29.8056
30.2267
30.6485
31.0708
31.4937
31.9171
32.3412
32.7658
33.1909
33.6166
34.0429
34.4696
34.8969
35.3248
35.7531
36.1819
36.6113
37.0414
37.4724
37.9042
38.3368
38.7701
39.2042
39.639
40.0746
40.5118
11.9954
12.369
12.7621
13.1501
13.5406
13.9314
14.3232
14.7158
15.1093
15.5037
15.8989
16.2951
16.692
17.0899
17.4886
17.8881
18.2885
18.6897
19.0917
19.4946
19.8982
20.3027
20.7079
21.1139
21.5207
21.9282
22.3365
22.7456
23.1554
23.5659
23.9771
24.389
24.8017
25.215
25.6291
26.0438
26.4592
26.8752
27.2919
27.7093
28.1273
28.5459
28.9652
29.3851
29.8056
30.2267
30.6485
31.0708
31.4937
31.9171
32.3412
32.7658
33.1909
33.6166
34.0429
34.4696
34.8969
35.3248
35.7531
36.1819
36.6113
37.0414
37.4724
37.9042
38.3368
38.7701
39.2042
39.639
40.0746
40.5118
11.9954
12.369
12.7621
13.1501
13.5406
13.9314
14.3232
14.7158
15.1093
15.5037
15.8989
16.2951
16.692
17.0899
17.4886
17.8881
18.2885
18.6897
19.0917
19.4946
19.8982
20.3027
20.7079
21.1139
21.5207
21.9282
22.3365
22.7456
23.1554
23.5659
23.9771
24.389
24.8017
25.215
25.6291
26.0438
26.4592
26.8752
27.2919
27.7093
28.1273
28.5459
28.9652
29.3851
29.8056
30.2267
30.6485
31.0708
31.4937
31.9171
32.3412
32.7658
33.1909
33.6166
34.0429
34.4696
34.8969
35.3248
35.7531
36.1819
36.6113
37.0414
37.4724
37.9042
38.3368
38.7701
39.2042
39.639
40.0746
40.5118
11.9954
12.369
12.7621
13.1501
13.5406
13.9314
14.3232
14.7158
15.1093
15.5037
15.8989
16.2951
16.692
17.0899
17.4886
17.8881
18.2885
18.6897
19.0917
19.4946
19.8982
20.3027
20.7079
21.1139
21.5207
21.9282
22.3365
22.7456
23.1554
23.5659
23.9771
24.389
24.8017
25.215
25.6291
26.0438
26.4592
26.8752
27.2919
27.7093
28.1273
28.5459
28.9652
29.3851
29.8056
30.2267
30.6485
31.0708
31.4937
31.9171
32.3412
32.7658
33.1909
33.6166
34.0429
34.4696
34.8969
35.3248
35.7531
36.1819
36.6113
37.0414
37.4724
37.9042
38.3368
38.7701
39.2042
39.639
40.0746
40.5118
)
;
    }
}


// ************************************************************************* //
