/*--------------------------------*- C++ -*----------------------------------*\
| =========                 |                                                 |
| \\      /  F ield         | OpenFOAM: The Open Source CFD Toolbox           |
|  \\    /   O peration     | Version:  2406                                  |
|   \\  /    A nd           | Website:  www.openfoam.com                      |
|    \\/     M anipulation  |                                                 |
\*---------------------------------------------------------------------------*/
FoamFile
{
    version     2.0;
    format      ascii;
    arch        "LSB;label=32;scalar=64";
    class       volScalarField;
    location    "30/fluidRegion";
    object      dgdt.vapour;
}
// * * * * * * * * * * * * * * * * * * * * * * * * * * * * * * * * * * * * * //

dimensions      [0 0 -1 0 0 0 0];

internalField   nonuniform List<scalar> 
70
(
1.48475
1.48972
1.49426
1.49858
1.50272
1.50672
1.5106
1.51438
1.51806
1.52168
1.52522
1.5287
1.53213
1.53551
1.53884
1.54212
1.54537
1.54858
1.55174
1.55487
1.55797
1.56103
1.56406
1.56705
1.57002
1.57295
1.57585
1.57872
1.58156
1.58436
1.58714
1.58989
1.59261
1.5953
1.59796
1.6006
1.6032
1.60578
1.60833
1.61085
1.61335
1.61581
1.61826
1.62067
1.62306
1.62542
1.62776
1.63007
1.63235
1.63461
1.63685
1.63906
1.64125
1.64341
1.64555
1.64766
1.64976
1.65183
1.65387
1.6559
1.65823
1.66164
1.665
1.66832
1.67161
1.67485
1.67806
1.68122
1.68435
1.68892
)
;

boundaryField
{
    inlet
    {
        type            calculated;
        value           uniform 1.48475;
    }
    outlet
    {
        type            calculated;
        value           uniform 1.68892;
    }
    fixedWalls
    {
        type            calculated;
        value           nonuniform List<scalar> 
280
(
1.48475
1.48972
1.49426
1.49858
1.50272
1.50672
1.5106
1.51438
1.51806
1.52168
1.52522
1.5287
1.53213
1.53551
1.53884
1.54212
1.54537
1.54858
1.55174
1.55487
1.55797
1.56103
1.56406
1.56705
1.57002
1.57295
1.57585
1.57872
1.58156
1.58436
1.58714
1.58989
1.59261
1.5953
1.59796
1.6006
1.6032
1.60578
1.60833
1.61085
1.61335
1.61581
1.61826
1.62067
1.62306
1.62542
1.62776
1.63007
1.63235
1.63461
1.63685
1.63906
1.64125
1.64341
1.64555
1.64766
1.64976
1.65183
1.65387
1.6559
1.65823
1.66164
1.665
1.66832
1.67161
1.67485
1.67806
1.68122
1.68435
1.68892
1.48475
1.48972
1.49426
1.49858
1.50272
1.50672
1.5106
1.51438
1.51806
1.52168
1.52522
1.5287
1.53213
1.53551
1.53884
1.54212
1.54537
1.54858
1.55174
1.55487
1.55797
1.56103
1.56406
1.56705
1.57002
1.57295
1.57585
1.57872
1.58156
1.58436
1.58714
1.58989
1.59261
1.5953
1.59796
1.6006
1.6032
1.60578
1.60833
1.61085
1.61335
1.61581
1.61826
1.62067
1.62306
1.62542
1.62776
1.63007
1.63235
1.63461
1.63685
1.63906
1.64125
1.64341
1.64555
1.64766
1.64976
1.65183
1.65387
1.6559
1.65823
1.66164
1.665
1.66832
1.67161
1.67485
1.67806
1.68122
1.68435
1.68892
1.48475
1.48972
1.49426
1.49858
1.50272
1.50672
1.5106
1.51438
1.51806
1.52168
1.52522
1.5287
1.53213
1.53551
1.53884
1.54212
1.54537
1.54858
1.55174
1.55487
1.55797
1.56103
1.56406
1.56705
1.57002
1.57295
1.57585
1.57872
1.58156
1.58436
1.58714
1.58989
1.59261
1.5953
1.59796
1.6006
1.6032
1.60578
1.60833
1.61085
1.61335
1.61581
1.61826
1.62067
1.62306
1.62542
1.62776
1.63007
1.63235
1.63461
1.63685
1.63906
1.64125
1.64341
1.64555
1.64766
1.64976
1.65183
1.65387
1.6559
1.65823
1.66164
1.665
1.66832
1.67161
1.67485
1.67806
1.68122
1.68435
1.68892
1.48475
1.48972
1.49426
1.49858
1.50272
1.50672
1.5106
1.51438
1.51806
1.52168
1.52522
1.5287
1.53213
1.53551
1.53884
1.54212
1.54537
1.54858
1.55174
1.55487
1.55797
1.56103
1.56406
1.56705
1.57002
1.57295
1.57585
1.57872
1.58156
1.58436
1.58714
1.58989
1.59261
1.5953
1.59796
1.6006
1.6032
1.60578
1.60833
1.61085
1.61335
1.61581
1.61826
1.62067
1.62306
1.62542
1.62776
1.63007
1.63235
1.63461
1.63685
1.63906
1.64125
1.64341
1.64555
1.64766
1.64976
1.65183
1.65387
1.6559
1.65823
1.66164
1.665
1.66832
1.67161
1.67485
1.67806
1.68122
1.68435
1.68892
)
;
    }
}


// ************************************************************************* //
