/*--------------------------------*- C++ -*----------------------------------*\
| =========                 |                                                 |
| \\      /  F ield         | OpenFOAM: The Open Source CFD Toolbox           |
|  \\    /   O peration     | Version:  2406                                  |
|   \\  /    A nd           | Website:  www.openfoam.com                      |
|    \\/     M anipulation  |                                                 |
\*---------------------------------------------------------------------------*/
FoamFile
{
    version     2.0;
    format      ascii;
    arch        "LSB;label=32;scalar=64";
    class       volTensorField;
    location    "30/fluidRegion";
    object      Kd.liquid.structure;
}
// * * * * * * * * * * * * * * * * * * * * * * * * * * * * * * * * * * * * * //

dimensions      [1 -3 -1 0 0 0 0];

internalField   nonuniform List<tensor> 
70
(
(1528.55 0 0 0 1528.55 0 0 0 1528.55)
(1554.24 0 0 0 1554.24 0 0 0 1554.24)
(1580.89 0 0 0 1580.89 0 0 0 1580.89)
(1606.78 0 0 0 1606.78 0 0 0 1606.78)
(1632.48 0 0 0 1632.48 0 0 0 1632.48)
(1657.85 0 0 0 1657.85 0 0 0 1657.85)
(1682.98 0 0 0 1682.98 0 0 0 1682.98)
(1707.86 0 0 0 1707.86 0 0 0 1707.86)
(1732.52 0 0 0 1732.52 0 0 0 1732.52)
(1756.96 0 0 0 1756.96 0 0 0 1756.96)
(1781.2 0 0 0 1781.2 0 0 0 1781.2)
(1805.25 0 0 0 1805.25 0 0 0 1805.25)
(1829.11 0 0 0 1829.11 0 0 0 1829.11)
(1852.8 0 0 0 1852.8 0 0 0 1852.8)
(1876.31 0 0 0 1876.31 0 0 0 1876.31)
(1899.67 0 0 0 1899.67 0 0 0 1899.67)
(1922.86 0 0 0 1922.86 0 0 0 1922.86)
(1945.89 0 0 0 1945.89 0 0 0 1945.89)
(1968.78 0 0 0 1968.78 0 0 0 1968.78)
(1991.52 0 0 0 1991.52 0 0 0 1991.52)
(2014.13 0 0 0 2014.13 0 0 0 2014.13)
(2036.59 0 0 0 2036.59 0 0 0 2036.59)
(2058.92 0 0 0 2058.92 0 0 0 2058.92)
(2081.12 0 0 0 2081.12 0 0 0 2081.12)
(2103.19 0 0 0 2103.19 0 0 0 2103.19)
(2125.14 0 0 0 2125.14 0 0 0 2125.14)
(2146.96 0 0 0 2146.96 0 0 0 2146.96)
(2168.67 0 0 0 2168.67 0 0 0 2168.67)
(2190.26 0 0 0 2190.26 0 0 0 2190.26)
(2211.74 0 0 0 2211.74 0 0 0 2211.74)
(2233.11 0 0 0 2233.11 0 0 0 2233.11)
(2254.37 0 0 0 2254.37 0 0 0 2254.37)
(2275.53 0 0 0 2275.53 0 0 0 2275.53)
(2296.59 0 0 0 2296.59 0 0 0 2296.59)
(2317.54 0 0 0 2317.54 0 0 0 2317.54)
(2338.39 0 0 0 2338.39 0 0 0 2338.39)
(2359.15 0 0 0 2359.15 0 0 0 2359.15)
(2379.81 0 0 0 2379.81 0 0 0 2379.81)
(2400.38 0 0 0 2400.38 0 0 0 2400.38)
(2420.86 0 0 0 2420.86 0 0 0 2420.86)
(2441.25 0 0 0 2441.25 0 0 0 2441.25)
(2461.56 0 0 0 2461.56 0 0 0 2461.56)
(2481.78 0 0 0 2481.78 0 0 0 2481.78)
(2501.91 0 0 0 2501.91 0 0 0 2501.91)
(2521.96 0 0 0 2521.96 0 0 0 2521.96)
(2541.93 0 0 0 2541.93 0 0 0 2541.93)
(2561.82 0 0 0 2561.82 0 0 0 2561.82)
(2581.64 0 0 0 2581.64 0 0 0 2581.64)
(2601.38 0 0 0 2601.38 0 0 0 2601.38)
(2621.04 0 0 0 2621.04 0 0 0 2621.04)
(2640.63 0 0 0 2640.63 0 0 0 2640.63)
(2660.14 0 0 0 2660.14 0 0 0 2660.14)
(2679.59 0 0 0 2679.59 0 0 0 2679.59)
(2698.96 0 0 0 2698.96 0 0 0 2698.96)
(2718.27 0 0 0 2718.27 0 0 0 2718.27)
(2737.51 0 0 0 2737.51 0 0 0 2737.51)
(2756.68 0 0 0 2756.68 0 0 0 2756.68)
(2775.79 0 0 0 2775.79 0 0 0 2775.79)
(2794.83 0 0 0 2794.83 0 0 0 2794.83)
(2813.81 0 0 0 2813.81 0 0 0 2813.81)
(2832.73 0 0 0 2832.73 0 0 0 2832.73)
(2851.6 0 0 0 2851.6 0 0 0 2851.6)
(2870.42 0 0 0 2870.42 0 0 0 2870.42)
(2889.2 0 0 0 2889.2 0 0 0 2889.2)
(2907.93 0 0 0 2907.93 0 0 0 2907.93)
(2926.63 0 0 0 2926.63 0 0 0 2926.63)
(2945.27 0 0 0 2945.27 0 0 0 2945.27)
(2963.88 0 0 0 2963.88 0 0 0 2963.88)
(2982.45 0 0 0 2982.45 0 0 0 2982.45)
(3000.95 0 0 0 3000.95 0 0 0 3000.95)
)
;

boundaryField
{
    inlet
    {
        type            zeroGradient;
    }
    outlet
    {
        type            zeroGradient;
    }
    fixedWalls
    {
        type            zeroGradient;
    }
}


// ************************************************************************* //
