/*--------------------------------*- C++ -*----------------------------------*\
| =========                 |                                                 |
| \\      /  F ield         | OpenFOAM: The Open Source CFD Toolbox           |
|  \\    /   O peration     | Version:  2406                                  |
|   \\  /    A nd           | Website:  www.openfoam.com                      |
|    \\/     M anipulation  |                                                 |
\*---------------------------------------------------------------------------*/
FoamFile
{
    version     2.0;
    format      ascii;
    arch        "LSB;label=32;scalar=64";
    class       volTensorField;
    location    "30/fluidRegion";
    object      KdTotU;
}
// * * * * * * * * * * * * * * * * * * * * * * * * * * * * * * * * * * * * * //

dimensions      [1 -2 -2 0 0 0 0];

internalField   nonuniform List<tensor> 
70
(
(2586.07 0 0 0 2586.07 0 0 0 2586.07)
(2643.66 0 0 0 2643.66 0 0 0 2643.66)
(2702.77 0 0 0 2702.77 0 0 0 2702.77)
(2761.28 0 0 0 2761.28 0 0 0 2761.28)
(2819.86 0 0 0 2819.86 0 0 0 2819.86)
(2878.3 0 0 0 2878.3 0 0 0 2878.3)
(2936.68 0 0 0 2936.68 0 0 0 2936.68)
(2994.98 0 0 0 2994.98 0 0 0 2994.98)
(3053.22 0 0 0 3053.22 0 0 0 3053.22)
(3111.38 0 0 0 3111.38 0 0 0 3111.38)
(3169.47 0 0 0 3169.47 0 0 0 3169.47)
(3227.5 0 0 0 3227.5 0 0 0 3227.5)
(3285.46 0 0 0 3285.46 0 0 0 3285.46)
(3343.36 0 0 0 3343.36 0 0 0 3343.36)
(3401.2 0 0 0 3401.2 0 0 0 3401.2)
(3458.97 0 0 0 3458.97 0 0 0 3458.97)
(3516.69 0 0 0 3516.69 0 0 0 3516.69)
(3574.34 0 0 0 3574.34 0 0 0 3574.34)
(3631.94 0 0 0 3631.94 0 0 0 3631.94)
(3689.47 0 0 0 3689.47 0 0 0 3689.47)
(3746.95 0 0 0 3746.95 0 0 0 3746.95)
(3804.37 0 0 0 3804.37 0 0 0 3804.37)
(3861.74 0 0 0 3861.74 0 0 0 3861.74)
(3919.04 0 0 0 3919.04 0 0 0 3919.04)
(3976.29 0 0 0 3976.29 0 0 0 3976.29)
(4033.49 0 0 0 4033.49 0 0 0 4033.49)
(4090.63 0 0 0 4090.63 0 0 0 4090.63)
(4147.71 0 0 0 4147.71 0 0 0 4147.71)
(4204.74 0 0 0 4204.74 0 0 0 4204.74)
(4261.71 0 0 0 4261.71 0 0 0 4261.71)
(4318.62 0 0 0 4318.62 0 0 0 4318.62)
(4375.48 0 0 0 4375.48 0 0 0 4375.48)
(4432.29 0 0 0 4432.29 0 0 0 4432.29)
(4489.04 0 0 0 4489.04 0 0 0 4489.04)
(4545.73 0 0 0 4545.73 0 0 0 4545.73)
(4602.37 0 0 0 4602.37 0 0 0 4602.37)
(4658.95 0 0 0 4658.95 0 0 0 4658.95)
(4715.48 0 0 0 4715.48 0 0 0 4715.48)
(4771.95 0 0 0 4771.95 0 0 0 4771.95)
(4828.37 0 0 0 4828.37 0 0 0 4828.37)
(4884.73 0 0 0 4884.73 0 0 0 4884.73)
(4941.03 0 0 0 4941.03 0 0 0 4941.03)
(4997.28 0 0 0 4997.28 0 0 0 4997.28)
(5053.47 0 0 0 5053.47 0 0 0 5053.47)
(5109.6 0 0 0 5109.6 0 0 0 5109.6)
(5165.68 0 0 0 5165.68 0 0 0 5165.68)
(5221.7 0 0 0 5221.7 0 0 0 5221.7)
(5277.67 0 0 0 5277.67 0 0 0 5277.67)
(5333.57 0 0 0 5333.57 0 0 0 5333.57)
(5389.42 0 0 0 5389.42 0 0 0 5389.42)
(5445.21 0 0 0 5445.21 0 0 0 5445.21)
(5500.94 0 0 0 5500.94 0 0 0 5500.94)
(5556.62 0 0 0 5556.62 0 0 0 5556.62)
(5612.23 0 0 0 5612.23 0 0 0 5612.23)
(5667.79 0 0 0 5667.79 0 0 0 5667.79)
(5723.29 0 0 0 5723.29 0 0 0 5723.29)
(5778.74 0 0 0 5778.74 0 0 0 5778.74)
(5834.12 0 0 0 5834.12 0 0 0 5834.12)
(5889.45 0 0 0 5889.45 0 0 0 5889.45)
(5944.72 0 0 0 5944.72 0 0 0 5944.72)
(5999.93 0 0 0 5999.93 0 0 0 5999.93)
(6055.13 0 0 0 6055.13 0 0 0 6055.13)
(6110.31 0 0 0 6110.31 0 0 0 6110.31)
(6165.49 0 0 0 6165.49 0 0 0 6165.49)
(6220.65 0 0 0 6220.65 0 0 0 6220.65)
(6275.81 0 0 0 6275.81 0 0 0 6275.81)
(6330.96 0 0 0 6330.96 0 0 0 6330.96)
(6386.1 0 0 0 6386.1 0 0 0 6386.1)
(6441.23 0 0 0 6441.23 0 0 0 6441.23)
(6496.42 0 0 0 6496.42 0 0 0 6496.42)
)
;

boundaryField
{
    inlet
    {
        type            zeroGradient;
    }
    outlet
    {
        type            zeroGradient;
    }
    fixedWalls
    {
        type            zeroGradient;
    }
}


// ************************************************************************* //
