/*--------------------------------*- C++ -*----------------------------------*\
| =========                 |                                                 |
| \\      /  F ield         | OpenFOAM: The Open Source CFD Toolbox           |
|  \\    /   O peration     | Version:  2406                                  |
|   \\  /    A nd           | Website:  www.openfoam.com                      |
|    \\/     M anipulation  |                                                 |
\*---------------------------------------------------------------------------*/
FoamFile
{
    version     2.0;
    format      ascii;
    arch        "LSB;label=32;scalar=64";
    class       volScalarField;
    location    "30/fluidRegion";
    object      alphaRhoMagU.vapour;
}
// * * * * * * * * * * * * * * * * * * * * * * * * * * * * * * * * * * * * * //

dimensions      [1 -2 -1 0 0 0 0];

internalField   nonuniform List<scalar> 
75
(
0
0
0
0
0
0
0
0
0
0
0
0
0
0
0
0
0
0
0
0
0
0.0350687
0.110936
0.222538
0.368231
0.548324
0.764253
1.01839
1.31372
1.65367
2.04184
2.48176
2.97666
3.52918
4.14108
4.81303
5.5444
6.33327
7.17627
8.05696
8.95483
9.86154
10.7749
11.6941
12.6186
13.5483
14.4829
15.4224
16.3665
17.3152
18.2684
19.226
20.1878
21.1538
22.1239
23.098
24.076
25.0578
26.0433
27.0323
28.0249
29.0209
30.0202
31.0228
32.0284
33.0372
34.0488
35.0634
36.0807
37.1014
38.1264
39.156
40.19
41.2279
42.2767
)
;

boundaryField
{
    inlet
    {
        type            calculated;
        value           uniform 0;
    }
    outlet
    {
        type            calculated;
        value           uniform 42.2757;
    }
    fixedWalls
    {
        type            calculated;
        value           nonuniform List<scalar> 
300
(
0
0
0
0
0
0
0
0
0
0
0
0
0
0
0
0
0
0
0
0
0
0.0350687
0.110936
0.222538
0.368231
0.548324
0.764253
1.01839
1.31372
1.65367
2.04184
2.48176
2.97666
3.52918
4.14108
4.81303
5.5444
6.33327
7.17627
8.05696
8.95483
9.86154
10.7749
11.6941
12.6186
13.5483
14.4829
15.4224
16.3665
17.3152
18.2684
19.226
20.1878
21.1538
22.1239
23.098
24.076
25.0578
26.0433
27.0323
28.0249
29.0209
30.0202
31.0228
32.0284
33.0372
34.0488
35.0634
36.0807
37.1014
38.1264
39.156
40.19
41.2279
42.2767
0
0
0
0
0
0
0
0
0
0
0
0
0
0
0
0
0
0
0
0
0
0.0350687
0.110936
0.222538
0.368231
0.548324
0.764253
1.01839
1.31372
1.65367
2.04184
2.48176
2.97666
3.52918
4.14108
4.81303
5.5444
6.33327
7.17627
8.05696
8.95483
9.86154
10.7749
11.6941
12.6186
13.5483
14.4829
15.4224
16.3665
17.3152
18.2684
19.226
20.1878
21.1538
22.1239
23.098
24.076
25.0578
26.0433
27.0323
28.0249
29.0209
30.0202
31.0228
32.0284
33.0372
34.0488
35.0634
36.0807
37.1014
38.1264
39.156
40.19
41.2279
42.2767
0
0
0
0
0
0
0
0
0
0
0
0
0
0
0
0
0
0
0
0
0
0.0350687
0.110936
0.222538
0.368231
0.548324
0.764253
1.01839
1.31372
1.65367
2.04184
2.48176
2.97666
3.52918
4.14108
4.81303
5.5444
6.33327
7.17627
8.05696
8.95483
9.86154
10.7749
11.6941
12.6186
13.5483
14.4829
15.4224
16.3665
17.3152
18.2684
19.226
20.1878
21.1538
22.1239
23.098
24.076
25.0578
26.0433
27.0323
28.0249
29.0209
30.0202
31.0228
32.0284
33.0372
34.0488
35.0634
36.0807
37.1014
38.1264
39.156
40.19
41.2279
42.2767
0
0
0
0
0
0
0
0
0
0
0
0
0
0
0
0
0
0
0
0
0
0.0350687
0.110936
0.222538
0.368231
0.548324
0.764253
1.01839
1.31372
1.65367
2.04184
2.48176
2.97666
3.52918
4.14108
4.81303
5.5444
6.33327
7.17627
8.05696
8.95483
9.86154
10.7749
11.6941
12.6186
13.5483
14.4829
15.4224
16.3665
17.3152
18.2684
19.226
20.1878
21.1538
22.1239
23.098
24.076
25.0578
26.0433
27.0323
28.0249
29.0209
30.0202
31.0228
32.0284
33.0372
34.0488
35.0634
36.0807
37.1014
38.1264
39.156
40.19
41.2279
42.2767
)
;
    }
}


// ************************************************************************* //
