/*--------------------------------*- C++ -*----------------------------------*\
| =========                 |                                                 |
| \\      /  F ield         | OpenFOAM: The Open Source CFD Toolbox           |
|  \\    /   O peration     | Version:  2406                                  |
|   \\  /    A nd           | Website:  www.openfoam.com                      |
|    \\/     M anipulation  |                                                 |
\*---------------------------------------------------------------------------*/
FoamFile
{
    version     2.0;
    format      ascii;
    arch        "LSB;label=32;scalar=64";
    class       volScalarField;
    location    "30/fluidRegion";
    object      dgdt.vapour;
}
// * * * * * * * * * * * * * * * * * * * * * * * * * * * * * * * * * * * * * //

dimensions      [0 0 -1 0 0 0 0];

internalField   nonuniform List<scalar> 
75
(
-0
-0
-0
-0
-0
-0
-0
-0
-0
-0
-0
-0
-0
-0
-0
-0
-0
-0
-0
-0
-0
0.0612696
0.124941
0.182697
0.238381
0.294728
0.35374
0.41685
0.485078
0.559072
0.639108
0.725053
0.816324
0.911862
1.01014
1.10923
1.20694
1.30097
1.39005
1.44556
1.46613
1.4795
1.49002
1.49918
1.50761
1.51559
1.52328
1.53075
1.53804
1.54517
1.55216
1.55901
1.56572
1.5723
1.57875
1.58506
1.59123
1.59727
1.60317
1.60894
1.61457
1.62007
1.62544
1.63067
1.63577
1.64075
1.6456
1.65032
1.65492
1.66089
1.66866
1.67624
1.68362
1.69081
1.69942
)
;

boundaryField
{
    inlet
    {
        type            calculated;
        value           uniform -0;
    }
    outlet
    {
        type            calculated;
        value           uniform 1.69942;
    }
    fixedWalls
    {
        type            calculated;
        value           nonuniform List<scalar> 
300
(
-0
-0
-0
-0
-0
-0
-0
-0
-0
-0
-0
-0
-0
-0
-0
-0
-0
-0
-0
-0
-0
0.0612696
0.124941
0.182697
0.238381
0.294728
0.35374
0.41685
0.485078
0.559072
0.639108
0.725053
0.816324
0.911862
1.01014
1.10923
1.20694
1.30097
1.39005
1.44556
1.46613
1.4795
1.49002
1.49918
1.50761
1.51559
1.52328
1.53075
1.53804
1.54517
1.55216
1.55901
1.56572
1.5723
1.57875
1.58506
1.59123
1.59727
1.60317
1.60894
1.61457
1.62007
1.62544
1.63067
1.63577
1.64075
1.6456
1.65032
1.65492
1.66089
1.66866
1.67624
1.68362
1.69081
1.69942
-0
-0
-0
-0
-0
-0
-0
-0
-0
-0
-0
-0
-0
-0
-0
-0
-0
-0
-0
-0
-0
0.0612696
0.124941
0.182697
0.238381
0.294728
0.35374
0.41685
0.485078
0.559072
0.639108
0.725053
0.816324
0.911862
1.01014
1.10923
1.20694
1.30097
1.39005
1.44556
1.46613
1.4795
1.49002
1.49918
1.50761
1.51559
1.52328
1.53075
1.53804
1.54517
1.55216
1.55901
1.56572
1.5723
1.57875
1.58506
1.59123
1.59727
1.60317
1.60894
1.61457
1.62007
1.62544
1.63067
1.63577
1.64075
1.6456
1.65032
1.65492
1.66089
1.66866
1.67624
1.68362
1.69081
1.69942
-0
-0
-0
-0
-0
-0
-0
-0
-0
-0
-0
-0
-0
-0
-0
-0
-0
-0
-0
-0
-0
0.0612696
0.124941
0.182697
0.238381
0.294728
0.35374
0.41685
0.485078
0.559072
0.639108
0.725053
0.816324
0.911862
1.01014
1.10923
1.20694
1.30097
1.39005
1.44556
1.46613
1.4795
1.49002
1.49918
1.50761
1.51559
1.52328
1.53075
1.53804
1.54517
1.55216
1.55901
1.56572
1.5723
1.57875
1.58506
1.59123
1.59727
1.60317
1.60894
1.61457
1.62007
1.62544
1.63067
1.63577
1.64075
1.6456
1.65032
1.65492
1.66089
1.66866
1.67624
1.68362
1.69081
1.69942
-0
-0
-0
-0
-0
-0
-0
-0
-0
-0
-0
-0
-0
-0
-0
-0
-0
-0
-0
-0
-0
0.0612696
0.124941
0.182697
0.238381
0.294728
0.35374
0.41685
0.485078
0.559072
0.639108
0.725053
0.816324
0.911862
1.01014
1.10923
1.20694
1.30097
1.39005
1.44556
1.46613
1.4795
1.49002
1.49918
1.50761
1.51559
1.52328
1.53075
1.53804
1.54517
1.55216
1.55901
1.56572
1.5723
1.57875
1.58506
1.59123
1.59727
1.60317
1.60894
1.61457
1.62007
1.62544
1.63067
1.63577
1.64075
1.6456
1.65032
1.65492
1.66089
1.66866
1.67624
1.68362
1.69081
1.69942
)
;
    }
}


// ************************************************************************* //
