/*--------------------------------*- C++ -*----------------------------------*\
| =========                 |                                                 |
| \\      /  F ield         | OpenFOAM: The Open Source CFD Toolbox           |
|  \\    /   O peration     | Version:  2406                                  |
|   \\  /    A nd           | Website:  www.openfoam.com                      |
|    \\/     M anipulation  |                                                 |
\*---------------------------------------------------------------------------*/
FoamFile
{
    version     2.0;
    format      ascii;
    arch        "LSB;label=32;scalar=64";
    class       volTensorField;
    location    "30/fluidRegion";
    object      Kd.liquid.structure;
}
// * * * * * * * * * * * * * * * * * * * * * * * * * * * * * * * * * * * * * //

dimensions      [1 -3 -1 0 0 0 0];

internalField   nonuniform List<tensor> 
75
(
(418.523 0 0 0 418.523 0 0 0 418.523)
(418.523 0 0 0 418.523 0 0 0 418.523)
(418.523 0 0 0 418.523 0 0 0 418.523)
(418.523 0 0 0 418.523 0 0 0 418.523)
(418.523 0 0 0 418.523 0 0 0 418.523)
(418.067 0 0 0 418.067 0 0 0 418.067)
(417.697 0 0 0 417.697 0 0 0 417.697)
(417.331 0 0 0 417.331 0 0 0 417.331)
(416.968 0 0 0 416.968 0 0 0 416.968)
(416.609 0 0 0 416.609 0 0 0 416.609)
(416.253 0 0 0 416.253 0 0 0 416.253)
(415.9 0 0 0 415.9 0 0 0 415.9)
(415.551 0 0 0 415.551 0 0 0 415.551)
(415.205 0 0 0 415.205 0 0 0 415.205)
(414.862 0 0 0 414.862 0 0 0 414.862)
(414.522 0 0 0 414.522 0 0 0 414.522)
(414.185 0 0 0 414.185 0 0 0 414.185)
(413.851 0 0 0 413.851 0 0 0 413.851)
(413.519 0 0 0 413.519 0 0 0 413.519)
(413.191 0 0 0 413.191 0 0 0 413.191)
(412.865 0 0 0 412.865 0 0 0 412.865)
(420.026 0 0 0 420.026 0 0 0 420.026)
(433.49 0 0 0 433.49 0 0 0 433.49)
(451.684 0 0 0 451.684 0 0 0 451.684)
(473.941 0 0 0 473.941 0 0 0 473.941)
(499.982 0 0 0 499.982 0 0 0 499.982)
(529.707 0 0 0 529.707 0 0 0 529.707)
(563.128 0 0 0 563.128 0 0 0 563.128)
(600.308 0 0 0 600.308 0 0 0 600.308)
(641.328 0 0 0 641.328 0 0 0 641.328)
(686.249 0 0 0 686.249 0 0 0 686.249)
(735.092 0 0 0 735.092 0 0 0 735.092)
(787.814 0 0 0 787.814 0 0 0 787.814)
(844.287 0 0 0 844.287 0 0 0 844.287)
(904.296 0 0 0 904.296 0 0 0 904.296)
(967.527 0 0 0 967.527 0 0 0 967.527)
(1033.58 0 0 0 1033.58 0 0 0 1033.58)
(1101.98 0 0 0 1101.98 0 0 0 1101.98)
(1172.23 0 0 0 1172.23 0 0 0 1172.23)
(1242.87 0 0 0 1242.87 0 0 0 1242.87)
(1312.26 0 0 0 1312.26 0 0 0 1312.26)
(1379.83 0 0 0 1379.83 0 0 0 1379.83)
(1445.6 0 0 0 1445.6 0 0 0 1445.6)
(1509.72 0 0 0 1509.72 0 0 0 1509.72)
(1572.3 0 0 0 1572.3 0 0 0 1572.3)
(1633.49 0 0 0 1633.49 0 0 0 1633.49)
(1693.38 0 0 0 1693.38 0 0 0 1693.38)
(1752.09 0 0 0 1752.09 0 0 0 1752.09)
(1809.69 0 0 0 1809.69 0 0 0 1809.69)
(1866.27 0 0 0 1866.27 0 0 0 1866.27)
(1921.9 0 0 0 1921.9 0 0 0 1921.9)
(1976.64 0 0 0 1976.64 0 0 0 1976.64)
(2030.55 0 0 0 2030.55 0 0 0 2030.55)
(2083.67 0 0 0 2083.67 0 0 0 2083.67)
(2136.07 0 0 0 2136.07 0 0 0 2136.07)
(2187.77 0 0 0 2187.77 0 0 0 2187.77)
(2238.82 0 0 0 2238.82 0 0 0 2238.82)
(2289.25 0 0 0 2289.25 0 0 0 2289.25)
(2339.09 0 0 0 2339.09 0 0 0 2339.09)
(2388.37 0 0 0 2388.37 0 0 0 2388.37)
(2437.13 0 0 0 2437.13 0 0 0 2437.13)
(2485.37 0 0 0 2485.37 0 0 0 2485.37)
(2533.14 0 0 0 2533.14 0 0 0 2533.14)
(2580.45 0 0 0 2580.45 0 0 0 2580.45)
(2627.31 0 0 0 2627.31 0 0 0 2627.31)
(2673.76 0 0 0 2673.76 0 0 0 2673.76)
(2719.8 0 0 0 2719.8 0 0 0 2719.8)
(2765.45 0 0 0 2765.45 0 0 0 2765.45)
(2810.73 0 0 0 2810.73 0 0 0 2810.73)
(2855.67 0 0 0 2855.67 0 0 0 2855.67)
(2900.33 0 0 0 2900.33 0 0 0 2900.33)
(2944.74 0 0 0 2944.74 0 0 0 2944.74)
(2988.91 0 0 0 2988.91 0 0 0 2988.91)
(3032.87 0 0 0 3032.87 0 0 0 3032.87)
(3076.39 0 0 0 3076.39 0 0 0 3076.39)
)
;

boundaryField
{
    inlet
    {
        type            zeroGradient;
    }
    outlet
    {
        type            zeroGradient;
    }
    fixedWalls
    {
        type            zeroGradient;
    }
}


// ************************************************************************* //
