/*--------------------------------*- C++ -*----------------------------------*\
| =========                 |                                                 |
| \\      /  F ield         | OpenFOAM: The Open Source CFD Toolbox           |
|  \\    /   O peration     | Version:  2406                                  |
|   \\  /    A nd           | Website:  www.openfoam.com                      |
|    \\/     M anipulation  |                                                 |
\*---------------------------------------------------------------------------*/
FoamFile
{
    version     2.0;
    format      ascii;
    arch        "LSB;label=32;scalar=64";
    class       volTensorField;
    location    "0.6/fluidRegion";
    object      Kd.liquid.structure;
}
// * * * * * * * * * * * * * * * * * * * * * * * * * * * * * * * * * * * * * //

dimensions      [1 -3 -1 0 0 0 0];

internalField   nonuniform List<tensor> 
70
(
(1134.98 0 0 0 1134.98 0 0 0 1134.98)
(1134.41 0 0 0 1134.41 0 0 0 1134.41)
(1133.84 0 0 0 1133.84 0 0 0 1133.84)
(1133.27 0 0 0 1133.27 0 0 0 1133.27)
(1132.69 0 0 0 1132.69 0 0 0 1132.69)
(1132.12 0 0 0 1132.12 0 0 0 1132.12)
(1131.54 0 0 0 1131.54 0 0 0 1131.54)
(1130.96 0 0 0 1130.96 0 0 0 1130.96)
(1130.39 0 0 0 1130.39 0 0 0 1130.39)
(1129.81 0 0 0 1129.81 0 0 0 1129.81)
(1129.23 0 0 0 1129.23 0 0 0 1129.23)
(1128.65 0 0 0 1128.65 0 0 0 1128.65)
(1128.06 0 0 0 1128.06 0 0 0 1128.06)
(1127.48 0 0 0 1127.48 0 0 0 1127.48)
(1126.9 0 0 0 1126.9 0 0 0 1126.9)
(1126.31 0 0 0 1126.31 0 0 0 1126.31)
(1125.73 0 0 0 1125.73 0 0 0 1125.73)
(1125.14 0 0 0 1125.14 0 0 0 1125.14)
(1124.55 0 0 0 1124.55 0 0 0 1124.55)
(1123.96 0 0 0 1123.96 0 0 0 1123.96)
(1123.37 0 0 0 1123.37 0 0 0 1123.37)
(1122.78 0 0 0 1122.78 0 0 0 1122.78)
(1122.18 0 0 0 1122.18 0 0 0 1122.18)
(1121.59 0 0 0 1121.59 0 0 0 1121.59)
(1121 0 0 0 1121 0 0 0 1121)
(1120.4 0 0 0 1120.4 0 0 0 1120.4)
(1119.8 0 0 0 1119.8 0 0 0 1119.8)
(1119.2 0 0 0 1119.2 0 0 0 1119.2)
(1118.6 0 0 0 1118.6 0 0 0 1118.6)
(1118 0 0 0 1118 0 0 0 1118)
(1117.4 0 0 0 1117.4 0 0 0 1117.4)
(1116.8 0 0 0 1116.8 0 0 0 1116.8)
(1116.2 0 0 0 1116.2 0 0 0 1116.2)
(1115.59 0 0 0 1115.59 0 0 0 1115.59)
(1114.99 0 0 0 1114.99 0 0 0 1114.99)
(1114.38 0 0 0 1114.38 0 0 0 1114.38)
(1113.77 0 0 0 1113.77 0 0 0 1113.77)
(1113.16 0 0 0 1113.16 0 0 0 1113.16)
(1112.55 0 0 0 1112.55 0 0 0 1112.55)
(1111.94 0 0 0 1111.94 0 0 0 1111.94)
(1111.33 0 0 0 1111.33 0 0 0 1111.33)
(1110.72 0 0 0 1110.72 0 0 0 1110.72)
(1110.1 0 0 0 1110.1 0 0 0 1110.1)
(1109.49 0 0 0 1109.49 0 0 0 1109.49)
(1108.87 0 0 0 1108.87 0 0 0 1108.87)
(1108.26 0 0 0 1108.26 0 0 0 1108.26)
(1107.64 0 0 0 1107.64 0 0 0 1107.64)
(1107.02 0 0 0 1107.02 0 0 0 1107.02)
(1106.4 0 0 0 1106.4 0 0 0 1106.4)
(1105.78 0 0 0 1105.78 0 0 0 1105.78)
(1122.6 0 0 0 1122.6 0 0 0 1122.6)
(1156.51 0 0 0 1156.51 0 0 0 1156.51)
(1204.53 0 0 0 1204.53 0 0 0 1204.53)
(1263.27 0 0 0 1263.27 0 0 0 1263.27)
(1331.78 0 0 0 1331.78 0 0 0 1331.78)
(1409.44 0 0 0 1409.44 0 0 0 1409.44)
(1494.88 0 0 0 1494.88 0 0 0 1494.88)
(1587.28 0 0 0 1587.28 0 0 0 1587.28)
(1685.85 0 0 0 1685.85 0 0 0 1685.85)
(1789.93 0 0 0 1789.93 0 0 0 1789.93)
(1898.92 0 0 0 1898.92 0 0 0 1898.92)
(2012.28 0 0 0 2012.28 0 0 0 2012.28)
(2129.51 0 0 0 2129.51 0 0 0 2129.51)
(2250.15 0 0 0 2250.15 0 0 0 2250.15)
(2373.78 0 0 0 2373.78 0 0 0 2373.78)
(2499.99 0 0 0 2499.99 0 0 0 2499.99)
(2628.41 0 0 0 2628.41 0 0 0 2628.41)
(2758.67 0 0 0 2758.67 0 0 0 2758.67)
(2890.66 0 0 0 2890.66 0 0 0 2890.66)
(3020.54 0 0 0 3020.54 0 0 0 3020.54)
)
;

boundaryField
{
    inlet
    {
        type            zeroGradient;
    }
    outlet
    {
        type            zeroGradient;
    }
    fixedWalls
    {
        type            zeroGradient;
    }
}


// ************************************************************************* //
