/*--------------------------------*- C++ -*----------------------------------*\
| =========                 |                                                 |
| \\      /  F ield         | OpenFOAM: The Open Source CFD Toolbox           |
|  \\    /   O peration     | Version:  2406                                  |
|   \\  /    A nd           | Website:  www.openfoam.com                      |
|    \\/     M anipulation  |                                                 |
\*---------------------------------------------------------------------------*/
FoamFile
{
    version     2.0;
    format      ascii;
    arch        "LSB;label=32;scalar=64";
    class       volTensorField;
    location    "0.6/fluidRegion";
    object      KdTotU;
}
// * * * * * * * * * * * * * * * * * * * * * * * * * * * * * * * * * * * * * //

dimensions      [1 -2 -2 0 0 0 0];

internalField   nonuniform List<tensor> 
70
(
(5074.02 0 0 0 5074.02 0 0 0 5074.02)
(5079.35 0 0 0 5079.35 0 0 0 5079.35)
(5084.72 0 0 0 5084.72 0 0 0 5084.72)
(5090.13 0 0 0 5090.13 0 0 0 5090.13)
(5095.56 0 0 0 5095.56 0 0 0 5095.56)
(5101.03 0 0 0 5101.03 0 0 0 5101.03)
(5106.53 0 0 0 5106.53 0 0 0 5106.53)
(5112.06 0 0 0 5112.06 0 0 0 5112.06)
(5117.62 0 0 0 5117.62 0 0 0 5117.62)
(5123.22 0 0 0 5123.22 0 0 0 5123.22)
(5128.84 0 0 0 5128.84 0 0 0 5128.84)
(5134.49 0 0 0 5134.49 0 0 0 5134.49)
(5140.17 0 0 0 5140.17 0 0 0 5140.17)
(5145.88 0 0 0 5145.88 0 0 0 5145.88)
(5151.61 0 0 0 5151.61 0 0 0 5151.61)
(5157.38 0 0 0 5157.38 0 0 0 5157.38)
(5163.17 0 0 0 5163.17 0 0 0 5163.17)
(5168.98 0 0 0 5168.98 0 0 0 5168.98)
(5174.83 0 0 0 5174.83 0 0 0 5174.83)
(5180.7 0 0 0 5180.7 0 0 0 5180.7)
(5186.59 0 0 0 5186.59 0 0 0 5186.59)
(5192.51 0 0 0 5192.51 0 0 0 5192.51)
(5198.45 0 0 0 5198.45 0 0 0 5198.45)
(5204.41 0 0 0 5204.41 0 0 0 5204.41)
(5210.4 0 0 0 5210.4 0 0 0 5210.4)
(5216.41 0 0 0 5216.41 0 0 0 5216.41)
(5222.44 0 0 0 5222.44 0 0 0 5222.44)
(5228.49 0 0 0 5228.49 0 0 0 5228.49)
(5234.57 0 0 0 5234.57 0 0 0 5234.57)
(5240.66 0 0 0 5240.66 0 0 0 5240.66)
(5246.77 0 0 0 5246.77 0 0 0 5246.77)
(5252.91 0 0 0 5252.91 0 0 0 5252.91)
(5259.06 0 0 0 5259.06 0 0 0 5259.06)
(5265.23 0 0 0 5265.23 0 0 0 5265.23)
(5271.42 0 0 0 5271.42 0 0 0 5271.42)
(5277.62 0 0 0 5277.62 0 0 0 5277.62)
(5283.85 0 0 0 5283.85 0 0 0 5283.85)
(5290.09 0 0 0 5290.09 0 0 0 5290.09)
(5296.34 0 0 0 5296.34 0 0 0 5296.34)
(5302.61 0 0 0 5302.61 0 0 0 5302.61)
(5308.9 0 0 0 5308.9 0 0 0 5308.9)
(5315.2 0 0 0 5315.2 0 0 0 5315.2)
(5321.51 0 0 0 5321.51 0 0 0 5321.51)
(5327.84 0 0 0 5327.84 0 0 0 5327.84)
(5334.18 0 0 0 5334.18 0 0 0 5334.18)
(5340.54 0 0 0 5340.54 0 0 0 5340.54)
(5346.9 0 0 0 5346.9 0 0 0 5346.9)
(5353.28 0 0 0 5353.28 0 0 0 5353.28)
(5359.67 0 0 0 5359.67 0 0 0 5359.67)
(5366.07 0 0 0 5366.07 0 0 0 5366.07)
(5459.54 0 0 0 5459.54 0 0 0 5459.54)
(5641.65 0 0 0 5641.65 0 0 0 5641.65)
(5899.14 0 0 0 5899.14 0 0 0 5899.14)
(6216.38 0 0 0 6216.38 0 0 0 6216.38)
(6589.34 0 0 0 6589.34 0 0 0 6589.34)
(7015.94 0 0 0 7015.94 0 0 0 7015.94)
(7490.56 0 0 0 7490.56 0 0 0 7490.56)
(8010.19 0 0 0 8010.19 0 0 0 8010.19)
(8571.95 0 0 0 8571.95 0 0 0 8571.95)
(9173.55 0 0 0 9173.55 0 0 0 9173.55)
(9812.94 0 0 0 9812.94 0 0 0 9812.94)
(10488.3 0 0 0 10488.3 0 0 0 10488.3)
(11197.8 0 0 0 11197.8 0 0 0 11197.8)
(11939.9 0 0 0 11939.9 0 0 0 11939.9)
(12713 0 0 0 12713 0 0 0 12713)
(13515.6 0 0 0 13515.6 0 0 0 13515.6)
(14346.1 0 0 0 14346.1 0 0 0 14346.1)
(15202.8 0 0 0 15202.8 0 0 0 15202.8)
(16086.1 0 0 0 16086.1 0 0 0 16086.1)
(16965.1 0 0 0 16965.1 0 0 0 16965.1)
)
;

boundaryField
{
    inlet
    {
        type            zeroGradient;
    }
    outlet
    {
        type            zeroGradient;
    }
    fixedWalls
    {
        type            zeroGradient;
    }
}


// ************************************************************************* //
