/*--------------------------------*- C++ -*----------------------------------*\
| =========                 |                                                 |
| \\      /  F ield         | OpenFOAM: The Open Source CFD Toolbox           |
|  \\    /   O peration     | Version:  2406                                  |
|   \\  /    A nd           | Website:  www.openfoam.com                      |
|    \\/     M anipulation  |                                                 |
\*---------------------------------------------------------------------------*/
FoamFile
{
    version     2.0;
    format      ascii;
    arch        "LSB;label=32;scalar=64";
    class       volScalarField;
    location    "0.6/fluidRegion";
    object      p;
}
// * * * * * * * * * * * * * * * * * * * * * * * * * * * * * * * * * * * * * //

dimensions      [1 -1 -2 0 0 0 0];

internalField   nonuniform List<scalar> 
70
(
1.4747e+07
1.47467e+07
1.47464e+07
1.47461e+07
1.47459e+07
1.47456e+07
1.47453e+07
1.4745e+07
1.47447e+07
1.47444e+07
1.47442e+07
1.47439e+07
1.47436e+07
1.47433e+07
1.4743e+07
1.47427e+07
1.47424e+07
1.47422e+07
1.47419e+07
1.47416e+07
1.47413e+07
1.4741e+07
1.47407e+07
1.47404e+07
1.47401e+07
1.47398e+07
1.47396e+07
1.47393e+07
1.4739e+07
1.47387e+07
1.47384e+07
1.47381e+07
1.47378e+07
1.47375e+07
1.47372e+07
1.47369e+07
1.47366e+07
1.47363e+07
1.4736e+07
1.47357e+07
1.47354e+07
1.47351e+07
1.47348e+07
1.47345e+07
1.47342e+07
1.4734e+07
1.47337e+07
1.47334e+07
1.47331e+07
1.47328e+07
1.47325e+07
1.47321e+07
1.47318e+07
1.47314e+07
1.4731e+07
1.47306e+07
1.47301e+07
1.47296e+07
1.47291e+07
1.47285e+07
1.47279e+07
1.47272e+07
1.47265e+07
1.47258e+07
1.4725e+07
1.47242e+07
1.47233e+07
1.47224e+07
1.47214e+07
1.47203e+07
)
;

boundaryField
{
    inlet
    {
        type            calculated;
        value           uniform 1.47471e+07;
    }
    outlet
    {
        type            calculated;
        value           uniform 1.47198e+07;
    }
    fixedWalls
    {
        type            calculated;
        value           nonuniform List<scalar> 
280
(
1.4747e+07
1.47467e+07
1.47464e+07
1.47461e+07
1.47459e+07
1.47456e+07
1.47453e+07
1.4745e+07
1.47447e+07
1.47444e+07
1.47442e+07
1.47439e+07
1.47436e+07
1.47433e+07
1.4743e+07
1.47427e+07
1.47424e+07
1.47422e+07
1.47419e+07
1.47416e+07
1.47413e+07
1.4741e+07
1.47407e+07
1.47404e+07
1.47401e+07
1.47398e+07
1.47396e+07
1.47393e+07
1.4739e+07
1.47387e+07
1.47384e+07
1.47381e+07
1.47378e+07
1.47375e+07
1.47372e+07
1.47369e+07
1.47366e+07
1.47363e+07
1.4736e+07
1.47357e+07
1.47354e+07
1.47351e+07
1.47348e+07
1.47345e+07
1.47342e+07
1.4734e+07
1.47337e+07
1.47334e+07
1.47331e+07
1.47328e+07
1.47325e+07
1.47321e+07
1.47318e+07
1.47314e+07
1.4731e+07
1.47306e+07
1.47301e+07
1.47296e+07
1.47291e+07
1.47285e+07
1.47279e+07
1.47272e+07
1.47265e+07
1.47258e+07
1.4725e+07
1.47242e+07
1.47233e+07
1.47224e+07
1.47214e+07
1.47203e+07
1.4747e+07
1.47467e+07
1.47464e+07
1.47461e+07
1.47459e+07
1.47456e+07
1.47453e+07
1.4745e+07
1.47447e+07
1.47444e+07
1.47442e+07
1.47439e+07
1.47436e+07
1.47433e+07
1.4743e+07
1.47427e+07
1.47424e+07
1.47422e+07
1.47419e+07
1.47416e+07
1.47413e+07
1.4741e+07
1.47407e+07
1.47404e+07
1.47401e+07
1.47398e+07
1.47396e+07
1.47393e+07
1.4739e+07
1.47387e+07
1.47384e+07
1.47381e+07
1.47378e+07
1.47375e+07
1.47372e+07
1.47369e+07
1.47366e+07
1.47363e+07
1.4736e+07
1.47357e+07
1.47354e+07
1.47351e+07
1.47348e+07
1.47345e+07
1.47342e+07
1.4734e+07
1.47337e+07
1.47334e+07
1.47331e+07
1.47328e+07
1.47325e+07
1.47321e+07
1.47318e+07
1.47314e+07
1.4731e+07
1.47306e+07
1.47301e+07
1.47296e+07
1.47291e+07
1.47285e+07
1.47279e+07
1.47272e+07
1.47265e+07
1.47258e+07
1.4725e+07
1.47242e+07
1.47233e+07
1.47224e+07
1.47214e+07
1.47203e+07
1.4747e+07
1.47467e+07
1.47464e+07
1.47461e+07
1.47459e+07
1.47456e+07
1.47453e+07
1.4745e+07
1.47447e+07
1.47444e+07
1.47442e+07
1.47439e+07
1.47436e+07
1.47433e+07
1.4743e+07
1.47427e+07
1.47424e+07
1.47422e+07
1.47419e+07
1.47416e+07
1.47413e+07
1.4741e+07
1.47407e+07
1.47404e+07
1.47401e+07
1.47398e+07
1.47396e+07
1.47393e+07
1.4739e+07
1.47387e+07
1.47384e+07
1.47381e+07
1.47378e+07
1.47375e+07
1.47372e+07
1.47369e+07
1.47366e+07
1.47363e+07
1.4736e+07
1.47357e+07
1.47354e+07
1.47351e+07
1.47348e+07
1.47345e+07
1.47342e+07
1.4734e+07
1.47337e+07
1.47334e+07
1.47331e+07
1.47328e+07
1.47325e+07
1.47321e+07
1.47318e+07
1.47314e+07
1.4731e+07
1.47306e+07
1.47301e+07
1.47296e+07
1.47291e+07
1.47285e+07
1.47279e+07
1.47272e+07
1.47265e+07
1.47258e+07
1.4725e+07
1.47242e+07
1.47233e+07
1.47224e+07
1.47214e+07
1.47203e+07
1.4747e+07
1.47467e+07
1.47464e+07
1.47461e+07
1.47459e+07
1.47456e+07
1.47453e+07
1.4745e+07
1.47447e+07
1.47444e+07
1.47442e+07
1.47439e+07
1.47436e+07
1.47433e+07
1.4743e+07
1.47427e+07
1.47424e+07
1.47422e+07
1.47419e+07
1.47416e+07
1.47413e+07
1.4741e+07
1.47407e+07
1.47404e+07
1.47401e+07
1.47398e+07
1.47396e+07
1.47393e+07
1.4739e+07
1.47387e+07
1.47384e+07
1.47381e+07
1.47378e+07
1.47375e+07
1.47372e+07
1.47369e+07
1.47366e+07
1.47363e+07
1.4736e+07
1.47357e+07
1.47354e+07
1.47351e+07
1.47348e+07
1.47345e+07
1.47342e+07
1.4734e+07
1.47337e+07
1.47334e+07
1.47331e+07
1.47328e+07
1.47325e+07
1.47321e+07
1.47318e+07
1.47314e+07
1.4731e+07
1.47306e+07
1.47301e+07
1.47296e+07
1.47291e+07
1.47285e+07
1.47279e+07
1.47272e+07
1.47265e+07
1.47258e+07
1.4725e+07
1.47242e+07
1.47233e+07
1.47224e+07
1.47214e+07
1.47203e+07
)
;
    }
}


// ************************************************************************* //
