/*--------------------------------*- C++ -*----------------------------------*\
| =========                 |                                                 |
| \\      /  F ield         | OpenFOAM: The Open Source CFD Toolbox           |
|  \\    /   O peration     | Version:  2406                                  |
|   \\  /    A nd           | Website:  www.openfoam.com                      |
|    \\/     M anipulation  |                                                 |
\*---------------------------------------------------------------------------*/
FoamFile
{
    version     2.0;
    format      ascii;
    arch        "LSB;label=32;scalar=64";
    class       volScalarField;
    location    "30/fluidRegion";
    object      alphaRhoMagU.vapour;
}
// * * * * * * * * * * * * * * * * * * * * * * * * * * * * * * * * * * * * * //

dimensions      [1 -2 -1 0 0 0 0];

internalField   nonuniform List<scalar> 
70
(
0
0
0
0
0
0
0
0
0
0
0
0
0
0
0
0
0.0350739
0.110947
0.222554
0.368253
0.548355
0.764293
1.01844
1.31379
1.65376
2.04194
2.48188
2.97681
3.52936
4.1413
4.81328
5.54469
6.33359
7.17661
8.05731
8.95519
9.86192
10.7753
11.6945
12.619
13.5487
14.4834
15.4229
16.3671
17.3158
18.269
19.2267
20.1886
21.1546
22.1248
23.099
24.0771
25.0589
26.0445
27.0337
28.0264
29.0225
30.022
31.0247
32.0305
33.0394
34.0512
35.066
36.0835
37.1044
38.1297
39.1595
40.1938
41.2318
42.281
)
;

boundaryField
{
    inlet
    {
        type            calculated;
        value           uniform 0;
    }
    outlet
    {
        type            calculated;
        value           uniform 42.28;
    }
    fixedWalls
    {
        type            calculated;
        value           nonuniform List<scalar> 
280
(
0
0
0
0
0
0
0
0
0
0
0
0
0
0
0
0
0.0350739
0.110947
0.222554
0.368253
0.548355
0.764293
1.01844
1.31379
1.65376
2.04194
2.48188
2.97681
3.52936
4.1413
4.81328
5.54469
6.33359
7.17661
8.05731
8.95519
9.86192
10.7753
11.6945
12.619
13.5487
14.4834
15.4229
16.3671
17.3158
18.269
19.2267
20.1886
21.1546
22.1248
23.099
24.0771
25.0589
26.0445
27.0337
28.0264
29.0225
30.022
31.0247
32.0305
33.0394
34.0512
35.066
36.0835
37.1044
38.1297
39.1595
40.1938
41.2318
42.281
0
0
0
0
0
0
0
0
0
0
0
0
0
0
0
0
0.0350739
0.110947
0.222554
0.368253
0.548355
0.764293
1.01844
1.31379
1.65376
2.04194
2.48188
2.97681
3.52936
4.1413
4.81328
5.54469
6.33359
7.17661
8.05731
8.95519
9.86192
10.7753
11.6945
12.619
13.5487
14.4834
15.4229
16.3671
17.3158
18.269
19.2267
20.1886
21.1546
22.1248
23.099
24.0771
25.0589
26.0445
27.0337
28.0264
29.0225
30.022
31.0247
32.0305
33.0394
34.0512
35.066
36.0835
37.1044
38.1297
39.1595
40.1938
41.2318
42.281
0
0
0
0
0
0
0
0
0
0
0
0
0
0
0
0
0.0350739
0.110947
0.222554
0.368253
0.548355
0.764293
1.01844
1.31379
1.65376
2.04194
2.48188
2.97681
3.52936
4.1413
4.81328
5.54469
6.33359
7.17661
8.05731
8.95519
9.86192
10.7753
11.6945
12.619
13.5487
14.4834
15.4229
16.3671
17.3158
18.269
19.2267
20.1886
21.1546
22.1248
23.099
24.0771
25.0589
26.0445
27.0337
28.0264
29.0225
30.022
31.0247
32.0305
33.0394
34.0512
35.066
36.0835
37.1044
38.1297
39.1595
40.1938
41.2318
42.281
0
0
0
0
0
0
0
0
0
0
0
0
0
0
0
0
0.0350739
0.110947
0.222554
0.368253
0.548355
0.764293
1.01844
1.31379
1.65376
2.04194
2.48188
2.97681
3.52936
4.1413
4.81328
5.54469
6.33359
7.17661
8.05731
8.95519
9.86192
10.7753
11.6945
12.619
13.5487
14.4834
15.4229
16.3671
17.3158
18.269
19.2267
20.1886
21.1546
22.1248
23.099
24.0771
25.0589
26.0445
27.0337
28.0264
29.0225
30.022
31.0247
32.0305
33.0394
34.0512
35.066
36.0835
37.1044
38.1297
39.1595
40.1938
41.2318
42.281
)
;
    }
}


// ************************************************************************* //
