/*--------------------------------*- C++ -*----------------------------------*\
| =========                 |                                                 |
| \\      /  F ield         | OpenFOAM: The Open Source CFD Toolbox           |
|  \\    /   O peration     | Version:  2406                                  |
|   \\  /    A nd           | Website:  www.openfoam.com                      |
|    \\/     M anipulation  |                                                 |
\*---------------------------------------------------------------------------*/
FoamFile
{
    version     2.0;
    format      ascii;
    arch        "LSB;label=32;scalar=64";
    class       volTensorField;
    location    "30/fluidRegion";
    object      Kd.liquid.structure;
}
// * * * * * * * * * * * * * * * * * * * * * * * * * * * * * * * * * * * * * //

dimensions      [1 -3 -1 0 0 0 0];

internalField   nonuniform List<tensor> 
70
(
(418.067 0 0 0 418.067 0 0 0 418.067)
(417.697 0 0 0 417.697 0 0 0 417.697)
(417.331 0 0 0 417.331 0 0 0 417.331)
(416.968 0 0 0 416.968 0 0 0 416.968)
(416.609 0 0 0 416.609 0 0 0 416.609)
(416.253 0 0 0 416.253 0 0 0 416.253)
(415.9 0 0 0 415.9 0 0 0 415.9)
(415.551 0 0 0 415.551 0 0 0 415.551)
(415.205 0 0 0 415.205 0 0 0 415.205)
(414.862 0 0 0 414.862 0 0 0 414.862)
(414.522 0 0 0 414.522 0 0 0 414.522)
(414.185 0 0 0 414.185 0 0 0 414.185)
(413.851 0 0 0 413.851 0 0 0 413.851)
(413.519 0 0 0 413.519 0 0 0 413.519)
(413.191 0 0 0 413.191 0 0 0 413.191)
(412.865 0 0 0 412.865 0 0 0 412.865)
(420.027 0 0 0 420.027 0 0 0 420.027)
(433.492 0 0 0 433.492 0 0 0 433.492)
(451.687 0 0 0 451.687 0 0 0 451.687)
(473.944 0 0 0 473.944 0 0 0 473.944)
(499.987 0 0 0 499.987 0 0 0 499.987)
(529.713 0 0 0 529.713 0 0 0 529.713)
(563.134 0 0 0 563.134 0 0 0 563.134)
(600.316 0 0 0 600.316 0 0 0 600.316)
(641.338 0 0 0 641.338 0 0 0 641.338)
(686.261 0 0 0 686.261 0 0 0 686.261)
(735.106 0 0 0 735.106 0 0 0 735.106)
(787.83 0 0 0 787.83 0 0 0 787.83)
(844.306 0 0 0 844.306 0 0 0 844.306)
(904.317 0 0 0 904.317 0 0 0 904.317)
(967.55 0 0 0 967.55 0 0 0 967.55)
(1033.6 0 0 0 1033.6 0 0 0 1033.6)
(1102.01 0 0 0 1102.01 0 0 0 1102.01)
(1172.25 0 0 0 1172.25 0 0 0 1172.25)
(1242.9 0 0 0 1242.9 0 0 0 1242.9)
(1312.29 0 0 0 1312.29 0 0 0 1312.29)
(1379.86 0 0 0 1379.86 0 0 0 1379.86)
(1445.63 0 0 0 1445.63 0 0 0 1445.63)
(1509.75 0 0 0 1509.75 0 0 0 1509.75)
(1572.33 0 0 0 1572.33 0 0 0 1572.33)
(1633.52 0 0 0 1633.52 0 0 0 1633.52)
(1693.41 0 0 0 1693.41 0 0 0 1693.41)
(1752.11 0 0 0 1752.11 0 0 0 1752.11)
(1809.72 0 0 0 1809.72 0 0 0 1809.72)
(1866.3 0 0 0 1866.3 0 0 0 1866.3)
(1921.93 0 0 0 1921.93 0 0 0 1921.93)
(1976.67 0 0 0 1976.67 0 0 0 1976.67)
(2030.58 0 0 0 2030.58 0 0 0 2030.58)
(2083.71 0 0 0 2083.71 0 0 0 2083.71)
(2136.11 0 0 0 2136.11 0 0 0 2136.11)
(2187.81 0 0 0 2187.81 0 0 0 2187.81)
(2238.86 0 0 0 2238.86 0 0 0 2238.86)
(2289.29 0 0 0 2289.29 0 0 0 2289.29)
(2339.14 0 0 0 2339.14 0 0 0 2339.14)
(2388.43 0 0 0 2388.43 0 0 0 2388.43)
(2437.18 0 0 0 2437.18 0 0 0 2437.18)
(2485.44 0 0 0 2485.44 0 0 0 2485.44)
(2533.21 0 0 0 2533.21 0 0 0 2533.21)
(2580.52 0 0 0 2580.52 0 0 0 2580.52)
(2627.39 0 0 0 2627.39 0 0 0 2627.39)
(2673.84 0 0 0 2673.84 0 0 0 2673.84)
(2719.88 0 0 0 2719.88 0 0 0 2719.88)
(2765.54 0 0 0 2765.54 0 0 0 2765.54)
(2810.83 0 0 0 2810.83 0 0 0 2810.83)
(2855.77 0 0 0 2855.77 0 0 0 2855.77)
(2900.44 0 0 0 2900.44 0 0 0 2900.44)
(2944.86 0 0 0 2944.86 0 0 0 2944.86)
(2989.04 0 0 0 2989.04 0 0 0 2989.04)
(3033.01 0 0 0 3033.01 0 0 0 3033.01)
(3076.52 0 0 0 3076.52 0 0 0 3076.52)
)
;

boundaryField
{
    inlet
    {
        type            zeroGradient;
    }
    outlet
    {
        type            zeroGradient;
    }
    fixedWalls
    {
        type            zeroGradient;
    }
}


// ************************************************************************* //
