/*--------------------------------*- C++ -*----------------------------------*\
| =========                 |                                                 |
| \\      /  F ield         | OpenFOAM: The Open Source CFD Toolbox           |
|  \\    /   O peration     | Version:  2406                                  |
|   \\  /    A nd           | Website:  www.openfoam.com                      |
|    \\/     M anipulation  |                                                 |
\*---------------------------------------------------------------------------*/
FoamFile
{
    version     2.0;
    format      ascii;
    arch        "LSB;label=32;scalar=64";
    class       volScalarField;
    location    "30/fluidRegion";
    object      alphaRhoMagU.vapour;
}
// * * * * * * * * * * * * * * * * * * * * * * * * * * * * * * * * * * * * * //

dimensions      [1 -2 -1 0 0 0 0];

internalField   nonuniform List<scalar> 
70
(
0
0
0
0
0
0
0
0
0
0
0
0.01491
0.105785
0.268326
0.492708
0.785743
1.15164
1.5989
2.13649
2.77339
3.51708
4.37237
5.34015
6.417
7.5952
8.82526
10.0766
11.341
12.6164
13.9021
15.1976
16.5025
17.8165
19.1393
20.4705
21.81
23.1575
24.5126
25.8752
27.245
28.6217
30.0051
31.3949
32.7909
34.1928
35.6005
37.0146
38.4369
39.8679
41.3073
42.7547
44.2098
45.6721
47.1414
48.6173
50.0993
51.5873
53.0809
54.5794
56.0846
57.5793
59.0418
60.4926
61.9353
63.3738
64.8101
66.2444
67.6823
69.103
70.6088
)
;

boundaryField
{
    inlet
    {
        type            calculated;
        value           uniform 0;
    }
    outlet
    {
        type            calculated;
        value           uniform 70.6052;
    }
    fixedWalls
    {
        type            calculated;
        value           nonuniform List<scalar> 
280
(
0
0
0
0
0
0
0
0
0
0
0
0.01491
0.105785
0.268326
0.492708
0.785743
1.15164
1.5989
2.13649
2.77339
3.51708
4.37237
5.34015
6.417
7.5952
8.82526
10.0766
11.341
12.6164
13.9021
15.1976
16.5025
17.8165
19.1393
20.4705
21.81
23.1575
24.5126
25.8752
27.245
28.6217
30.0051
31.3949
32.7909
34.1928
35.6005
37.0146
38.4369
39.8679
41.3073
42.7547
44.2098
45.6721
47.1414
48.6173
50.0993
51.5873
53.0809
54.5794
56.0846
57.5793
59.0418
60.4926
61.9353
63.3738
64.8101
66.2444
67.6823
69.103
70.6088
0
0
0
0
0
0
0
0
0
0
0
0.01491
0.105785
0.268326
0.492708
0.785743
1.15164
1.5989
2.13649
2.77339
3.51708
4.37237
5.34015
6.417
7.5952
8.82526
10.0766
11.341
12.6164
13.9021
15.1976
16.5025
17.8165
19.1393
20.4705
21.81
23.1575
24.5126
25.8752
27.245
28.6217
30.0051
31.3949
32.7909
34.1928
35.6005
37.0146
38.4369
39.8679
41.3073
42.7547
44.2098
45.6721
47.1414
48.6173
50.0993
51.5873
53.0809
54.5794
56.0846
57.5793
59.0418
60.4926
61.9353
63.3738
64.8101
66.2444
67.6823
69.103
70.6088
0
0
0
0
0
0
0
0
0
0
0
0.01491
0.105785
0.268326
0.492708
0.785743
1.15164
1.5989
2.13649
2.77339
3.51708
4.37237
5.34015
6.417
7.5952
8.82526
10.0766
11.341
12.6164
13.9021
15.1976
16.5025
17.8165
19.1393
20.4705
21.81
23.1575
24.5126
25.8752
27.245
28.6217
30.0051
31.3949
32.7909
34.1928
35.6005
37.0146
38.4369
39.8679
41.3073
42.7547
44.2098
45.6721
47.1414
48.6173
50.0993
51.5873
53.0809
54.5794
56.0846
57.5793
59.0418
60.4926
61.9353
63.3738
64.8101
66.2444
67.6823
69.103
70.6088
0
0
0
0
0
0
0
0
0
0
0
0.01491
0.105785
0.268326
0.492708
0.785743
1.15164
1.5989
2.13649
2.77339
3.51708
4.37237
5.34015
6.417
7.5952
8.82526
10.0766
11.341
12.6164
13.9021
15.1976
16.5025
17.8165
19.1393
20.4705
21.81
23.1575
24.5126
25.8752
27.245
28.6217
30.0051
31.3949
32.7909
34.1928
35.6005
37.0146
38.4369
39.8679
41.3073
42.7547
44.2098
45.6721
47.1414
48.6173
50.0993
51.5873
53.0809
54.5794
56.0846
57.5793
59.0418
60.4926
61.9353
63.3738
64.8101
66.2444
67.6823
69.103
70.6088
)
;
    }
}


// ************************************************************************* //
