/*--------------------------------*- C++ -*----------------------------------*\
| =========                 |                                                 |
| \\      /  F ield         | OpenFOAM: The Open Source CFD Toolbox           |
|  \\    /   O peration     | Version:  2406                                  |
|   \\  /    A nd           | Website:  www.openfoam.com                      |
|    \\/     M anipulation  |                                                 |
\*---------------------------------------------------------------------------*/
FoamFile
{
    version     2.0;
    format      ascii;
    arch        "LSB;label=32;scalar=64";
    class       volScalarField;
    location    "30/fluidRegion";
    object      dgdt.vapour;
}
// * * * * * * * * * * * * * * * * * * * * * * * * * * * * * * * * * * * * * //

dimensions      [0 0 -1 0 0 0 0];

internalField   nonuniform List<scalar> 
70
(
-0
-0
-0
-0
-0
-0
-0
-0
-0
-0
-0
0.0183506
0.112698
0.190451
0.267425
0.347374
0.43517
0.533076
0.64221
0.762209
0.891114
1.02532
1.15987
1.28907
1.41032
1.45539
1.47566
1.49035
1.50284
1.51427
1.52507
1.53544
1.54546
1.55519
1.56463
1.57381
1.58271
1.59136
1.59974
1.60786
1.61572
1.62332
1.63068
1.63779
1.64466
1.65129
1.65896
1.66959
1.67982
1.68965
1.69906
1.70807
1.71668
1.7249
1.73271
1.74015
1.7472
1.75388
1.76019
1.76616
1.77176
1.72899
1.70627
1.69532
1.68974
1.68714
1.68643
1.6868
1.68865
1.69272
)
;

boundaryField
{
    inlet
    {
        type            calculated;
        value           uniform -0;
    }
    outlet
    {
        type            calculated;
        value           uniform 1.69272;
    }
    fixedWalls
    {
        type            calculated;
        value           nonuniform List<scalar> 
280
(
-0
-0
-0
-0
-0
-0
-0
-0
-0
-0
-0
0.0183506
0.112698
0.190451
0.267425
0.347374
0.43517
0.533076
0.64221
0.762209
0.891114
1.02532
1.15987
1.28907
1.41032
1.45539
1.47566
1.49035
1.50284
1.51427
1.52507
1.53544
1.54546
1.55519
1.56463
1.57381
1.58271
1.59136
1.59974
1.60786
1.61572
1.62332
1.63068
1.63779
1.64466
1.65129
1.65896
1.66959
1.67982
1.68965
1.69906
1.70807
1.71668
1.7249
1.73271
1.74015
1.7472
1.75388
1.76019
1.76616
1.77176
1.72899
1.70627
1.69532
1.68974
1.68714
1.68643
1.6868
1.68865
1.69272
-0
-0
-0
-0
-0
-0
-0
-0
-0
-0
-0
0.0183506
0.112698
0.190451
0.267425
0.347374
0.43517
0.533076
0.64221
0.762209
0.891114
1.02532
1.15987
1.28907
1.41032
1.45539
1.47566
1.49035
1.50284
1.51427
1.52507
1.53544
1.54546
1.55519
1.56463
1.57381
1.58271
1.59136
1.59974
1.60786
1.61572
1.62332
1.63068
1.63779
1.64466
1.65129
1.65896
1.66959
1.67982
1.68965
1.69906
1.70807
1.71668
1.7249
1.73271
1.74015
1.7472
1.75388
1.76019
1.76616
1.77176
1.72899
1.70627
1.69532
1.68974
1.68714
1.68643
1.6868
1.68865
1.69272
-0
-0
-0
-0
-0
-0
-0
-0
-0
-0
-0
0.0183506
0.112698
0.190451
0.267425
0.347374
0.43517
0.533076
0.64221
0.762209
0.891114
1.02532
1.15987
1.28907
1.41032
1.45539
1.47566
1.49035
1.50284
1.51427
1.52507
1.53544
1.54546
1.55519
1.56463
1.57381
1.58271
1.59136
1.59974
1.60786
1.61572
1.62332
1.63068
1.63779
1.64466
1.65129
1.65896
1.66959
1.67982
1.68965
1.69906
1.70807
1.71668
1.7249
1.73271
1.74015
1.7472
1.75388
1.76019
1.76616
1.77176
1.72899
1.70627
1.69532
1.68974
1.68714
1.68643
1.6868
1.68865
1.69272
-0
-0
-0
-0
-0
-0
-0
-0
-0
-0
-0
0.0183506
0.112698
0.190451
0.267425
0.347374
0.43517
0.533076
0.64221
0.762209
0.891114
1.02532
1.15987
1.28907
1.41032
1.45539
1.47566
1.49035
1.50284
1.51427
1.52507
1.53544
1.54546
1.55519
1.56463
1.57381
1.58271
1.59136
1.59974
1.60786
1.61572
1.62332
1.63068
1.63779
1.64466
1.65129
1.65896
1.66959
1.67982
1.68965
1.69906
1.70807
1.71668
1.7249
1.73271
1.74015
1.7472
1.75388
1.76019
1.76616
1.77176
1.72899
1.70627
1.69532
1.68974
1.68714
1.68643
1.6868
1.68865
1.69272
)
;
    }
}


// ************************************************************************* //
