/*--------------------------------*- C++ -*----------------------------------*\
| =========                 |                                                 |
| \\      /  F ield         | OpenFOAM: The Open Source CFD Toolbox           |
|  \\    /   O peration     | Version:  2406                                  |
|   \\  /    A nd           | Website:  www.openfoam.com                      |
|    \\/     M anipulation  |                                                 |
\*---------------------------------------------------------------------------*/
FoamFile
{
    version     2.0;
    format      ascii;
    arch        "LSB;label=32;scalar=64";
    class       volScalarField;
    location    "30/fluidRegion";
    object      p_rgh;
}
// * * * * * * * * * * * * * * * * * * * * * * * * * * * * * * * * * * * * * //

dimensions      [1 -1 -2 0 0 0 0];

internalField   nonuniform List<scalar> 
70
(
7.22063e+06
7.2206e+06
7.22056e+06
7.22053e+06
7.22049e+06
7.22046e+06
7.22043e+06
7.22039e+06
7.22036e+06
7.22032e+06
7.22029e+06
7.22026e+06
7.22022e+06
7.22018e+06
7.22013e+06
7.22008e+06
7.22002e+06
7.21995e+06
7.21987e+06
7.21979e+06
7.21969e+06
7.21959e+06
7.21947e+06
7.21933e+06
7.21919e+06
7.21903e+06
7.21885e+06
7.21867e+06
7.21847e+06
7.21826e+06
7.21805e+06
7.21781e+06
7.21757e+06
7.21732e+06
7.21705e+06
7.21678e+06
7.21649e+06
7.21619e+06
7.21588e+06
7.21556e+06
7.21523e+06
7.21488e+06
7.21452e+06
7.21416e+06
7.21378e+06
7.21339e+06
7.21298e+06
7.21257e+06
7.21215e+06
7.21171e+06
7.21126e+06
7.2108e+06
7.21033e+06
7.20985e+06
7.20935e+06
7.20885e+06
7.20833e+06
7.2078e+06
7.20726e+06
7.20671e+06
7.20615e+06
7.20557e+06
7.20498e+06
7.20437e+06
7.20375e+06
7.20311e+06
7.20245e+06
7.20177e+06
7.20108e+06
7.20037e+06
)
;

boundaryField
{
    inlet
    {
        type            fixedFluxPressure;
        gradient        uniform 1066.54;
        value           uniform 7.22065e+06;
    }
    outlet
    {
        type            fixedValue;
        value           uniform 7.2e+06;
    }
    fixedWalls
    {
        type            fixedFluxPressure;
        gradient        nonuniform List<scalar> 
280
(
0
0
-3.96518e-20
0
0
0
0
0
0
3.27921e-17
-3.96518e-20
-3.22475e-17
0
0
0
0
6.26127e-17
-2.78671e-19
1.99527e-17
-5.29037e-18
-4.04521e-17
-3.94104e-18
-6.64721e-18
5.63206e-18
-5.91906e-18
-4.80344e-18
0
1.35044e-16
-8.97645e-18
1.34064e-17
0
-1.16861e-16
0
0
0
0
0
0
0
0
0
0
0
0
0
0
0
0
0
0
0
0
0
0
0
0
0
0
0
0
0
0
0
0
0
0
0
0
0
0
0
0
3.96518e-20
0
0
0
0
0
0
-3.27921e-17
3.96518e-20
3.22475e-17
0
0
0
0
-6.26127e-17
2.78671e-19
-1.99527e-17
5.29037e-18
4.04521e-17
3.94104e-18
6.64721e-18
-5.63206e-18
5.91906e-18
4.80344e-18
0
-1.35044e-16
8.97645e-18
-1.34064e-17
0
1.16861e-16
0
0
0
0
0
0
0
0
0
0
0
0
0
0
0
0
0
0
0
0
0
0
0
0
0
0
0
0
0
0
0
0
0
0
0
0
0
0
0
0
-3.96518e-20
0
0
0
0
0
0
3.27921e-17
-3.96518e-20
-3.22475e-17
0
0
0
0
6.26127e-17
-2.78671e-19
1.99527e-17
-5.29037e-18
-4.04521e-17
-3.94104e-18
-6.64721e-18
5.63206e-18
-5.91906e-18
-4.80344e-18
0
1.35044e-16
-8.97645e-18
1.34064e-17
0
-1.16861e-16
0
0
0
0
0
0
0
0
0
0
0
0
0
0
0
0
0
0
0
0
0
0
0
0
0
0
0
0
0
0
0
0
0
0
0
0
0
0
0
0
3.96518e-20
0
0
0
0
0
0
-3.27921e-17
3.96518e-20
3.22475e-17
0
0
0
0
-6.26127e-17
2.78671e-19
-1.99527e-17
5.29037e-18
4.04521e-17
3.94104e-18
6.64721e-18
-5.63206e-18
5.91906e-18
4.80344e-18
0
-1.35044e-16
8.97645e-18
-1.34064e-17
0
1.16861e-16
0
0
0
0
0
0
0
0
0
0
0
0
0
0
0
0
0
0
0
0
0
0
0
0
0
0
0
0
0
0
0
0
0
0
0
0
0
0
)
;
        value           nonuniform List<scalar> 
280
(
7.22063e+06
7.2206e+06
7.22056e+06
7.22053e+06
7.22049e+06
7.22046e+06
7.22043e+06
7.22039e+06
7.22036e+06
7.22032e+06
7.22029e+06
7.22026e+06
7.22022e+06
7.22018e+06
7.22013e+06
7.22008e+06
7.22002e+06
7.21995e+06
7.21987e+06
7.21979e+06
7.21969e+06
7.21959e+06
7.21947e+06
7.21933e+06
7.21919e+06
7.21903e+06
7.21885e+06
7.21867e+06
7.21847e+06
7.21826e+06
7.21805e+06
7.21781e+06
7.21757e+06
7.21732e+06
7.21705e+06
7.21678e+06
7.21649e+06
7.21619e+06
7.21588e+06
7.21556e+06
7.21523e+06
7.21488e+06
7.21452e+06
7.21416e+06
7.21378e+06
7.21339e+06
7.21298e+06
7.21257e+06
7.21215e+06
7.21171e+06
7.21126e+06
7.2108e+06
7.21033e+06
7.20985e+06
7.20935e+06
7.20885e+06
7.20833e+06
7.2078e+06
7.20726e+06
7.20671e+06
7.20615e+06
7.20557e+06
7.20498e+06
7.20437e+06
7.20375e+06
7.20311e+06
7.20245e+06
7.20177e+06
7.20108e+06
7.20037e+06
7.22063e+06
7.2206e+06
7.22056e+06
7.22053e+06
7.22049e+06
7.22046e+06
7.22043e+06
7.22039e+06
7.22036e+06
7.22032e+06
7.22029e+06
7.22026e+06
7.22022e+06
7.22018e+06
7.22013e+06
7.22008e+06
7.22002e+06
7.21995e+06
7.21987e+06
7.21979e+06
7.21969e+06
7.21959e+06
7.21947e+06
7.21933e+06
7.21919e+06
7.21903e+06
7.21885e+06
7.21867e+06
7.21847e+06
7.21826e+06
7.21805e+06
7.21781e+06
7.21757e+06
7.21732e+06
7.21705e+06
7.21678e+06
7.21649e+06
7.21619e+06
7.21588e+06
7.21556e+06
7.21523e+06
7.21488e+06
7.21452e+06
7.21416e+06
7.21378e+06
7.21339e+06
7.21298e+06
7.21257e+06
7.21215e+06
7.21171e+06
7.21126e+06
7.2108e+06
7.21033e+06
7.20985e+06
7.20935e+06
7.20885e+06
7.20833e+06
7.2078e+06
7.20726e+06
7.20671e+06
7.20615e+06
7.20557e+06
7.20498e+06
7.20437e+06
7.20375e+06
7.20311e+06
7.20245e+06
7.20177e+06
7.20108e+06
7.20037e+06
7.22063e+06
7.2206e+06
7.22056e+06
7.22053e+06
7.22049e+06
7.22046e+06
7.22043e+06
7.22039e+06
7.22036e+06
7.22032e+06
7.22029e+06
7.22026e+06
7.22022e+06
7.22018e+06
7.22013e+06
7.22008e+06
7.22002e+06
7.21995e+06
7.21987e+06
7.21979e+06
7.21969e+06
7.21959e+06
7.21947e+06
7.21933e+06
7.21919e+06
7.21903e+06
7.21885e+06
7.21867e+06
7.21847e+06
7.21826e+06
7.21805e+06
7.21781e+06
7.21757e+06
7.21732e+06
7.21705e+06
7.21678e+06
7.21649e+06
7.21619e+06
7.21588e+06
7.21556e+06
7.21523e+06
7.21488e+06
7.21452e+06
7.21416e+06
7.21378e+06
7.21339e+06
7.21298e+06
7.21257e+06
7.21215e+06
7.21171e+06
7.21126e+06
7.2108e+06
7.21033e+06
7.20985e+06
7.20935e+06
7.20885e+06
7.20833e+06
7.2078e+06
7.20726e+06
7.20671e+06
7.20615e+06
7.20557e+06
7.20498e+06
7.20437e+06
7.20375e+06
7.20311e+06
7.20245e+06
7.20177e+06
7.20108e+06
7.20037e+06
7.22063e+06
7.2206e+06
7.22056e+06
7.22053e+06
7.22049e+06
7.22046e+06
7.22043e+06
7.22039e+06
7.22036e+06
7.22032e+06
7.22029e+06
7.22026e+06
7.22022e+06
7.22018e+06
7.22013e+06
7.22008e+06
7.22002e+06
7.21995e+06
7.21987e+06
7.21979e+06
7.21969e+06
7.21959e+06
7.21947e+06
7.21933e+06
7.21919e+06
7.21903e+06
7.21885e+06
7.21867e+06
7.21847e+06
7.21826e+06
7.21805e+06
7.21781e+06
7.21757e+06
7.21732e+06
7.21705e+06
7.21678e+06
7.21649e+06
7.21619e+06
7.21588e+06
7.21556e+06
7.21523e+06
7.21488e+06
7.21452e+06
7.21416e+06
7.21378e+06
7.21339e+06
7.21298e+06
7.21257e+06
7.21215e+06
7.21171e+06
7.21126e+06
7.2108e+06
7.21033e+06
7.20985e+06
7.20935e+06
7.20885e+06
7.20833e+06
7.2078e+06
7.20726e+06
7.20671e+06
7.20615e+06
7.20557e+06
7.20498e+06
7.20437e+06
7.20375e+06
7.20311e+06
7.20245e+06
7.20177e+06
7.20108e+06
7.20037e+06
)
;
    }
}


// ************************************************************************* //
