/*--------------------------------*- C++ -*----------------------------------*\
| =========                 |                                                 |
| \\      /  F ield         | OpenFOAM: The Open Source CFD Toolbox           |
|  \\    /   O peration     | Version:  2406                                  |
|   \\  /    A nd           | Website:  www.openfoam.com                      |
|    \\/     M anipulation  |                                                 |
\*---------------------------------------------------------------------------*/
FoamFile
{
    version     2.0;
    format      ascii;
    arch        "LSB;label=32;scalar=64";
    class       volTensorField;
    location    "0.6/fluidRegion";
    object      Kd.liquid.structure;
}
// * * * * * * * * * * * * * * * * * * * * * * * * * * * * * * * * * * * * * //

dimensions      [1 -3 -1 0 0 0 0];

internalField   nonuniform List<tensor> 
70
(
(1135.4 0 0 0 1135.4 0 0 0 1135.4)
(1135.02 0 0 0 1135.02 0 0 0 1135.02)
(1134.64 0 0 0 1134.64 0 0 0 1134.64)
(1134.26 0 0 0 1134.26 0 0 0 1134.26)
(1133.88 0 0 0 1133.88 0 0 0 1133.88)
(1133.5 0 0 0 1133.5 0 0 0 1133.5)
(1133.12 0 0 0 1133.12 0 0 0 1133.12)
(1132.73 0 0 0 1132.73 0 0 0 1132.73)
(1132.35 0 0 0 1132.35 0 0 0 1132.35)
(1131.97 0 0 0 1131.97 0 0 0 1131.97)
(1131.59 0 0 0 1131.59 0 0 0 1131.59)
(1131.21 0 0 0 1131.21 0 0 0 1131.21)
(1130.82 0 0 0 1130.82 0 0 0 1130.82)
(1130.44 0 0 0 1130.44 0 0 0 1130.44)
(1130.06 0 0 0 1130.06 0 0 0 1130.06)
(1129.67 0 0 0 1129.67 0 0 0 1129.67)
(1129.29 0 0 0 1129.29 0 0 0 1129.29)
(1128.9 0 0 0 1128.9 0 0 0 1128.9)
(1128.52 0 0 0 1128.52 0 0 0 1128.52)
(1128.14 0 0 0 1128.14 0 0 0 1128.14)
(1127.75 0 0 0 1127.75 0 0 0 1127.75)
(1127.36 0 0 0 1127.36 0 0 0 1127.36)
(1126.98 0 0 0 1126.98 0 0 0 1126.98)
(1126.59 0 0 0 1126.59 0 0 0 1126.59)
(1126.21 0 0 0 1126.21 0 0 0 1126.21)
(1125.82 0 0 0 1125.82 0 0 0 1125.82)
(1125.44 0 0 0 1125.44 0 0 0 1125.44)
(1125.06 0 0 0 1125.06 0 0 0 1125.06)
(1124.68 0 0 0 1124.68 0 0 0 1124.68)
(1124.3 0 0 0 1124.3 0 0 0 1124.3)
(1123.92 0 0 0 1123.92 0 0 0 1123.92)
(1123.54 0 0 0 1123.54 0 0 0 1123.54)
(1123.17 0 0 0 1123.17 0 0 0 1123.17)
(1122.8 0 0 0 1122.8 0 0 0 1122.8)
(1122.44 0 0 0 1122.44 0 0 0 1122.44)
(1122.08 0 0 0 1122.08 0 0 0 1122.08)
(1121.72 0 0 0 1121.72 0 0 0 1121.72)
(1121.37 0 0 0 1121.37 0 0 0 1121.37)
(1121.02 0 0 0 1121.02 0 0 0 1121.02)
(1120.67 0 0 0 1120.67 0 0 0 1120.67)
(1120.33 0 0 0 1120.33 0 0 0 1120.33)
(1120 0 0 0 1120 0 0 0 1120)
(1119.67 0 0 0 1119.67 0 0 0 1119.67)
(1119.35 0 0 0 1119.35 0 0 0 1119.35)
(1119.02 0 0 0 1119.02 0 0 0 1119.02)
(1118.69 0 0 0 1118.69 0 0 0 1118.69)
(1118.35 0 0 0 1118.35 0 0 0 1118.35)
(1118 0 0 0 1118 0 0 0 1118)
(1117.64 0 0 0 1117.64 0 0 0 1117.64)
(1117.26 0 0 0 1117.26 0 0 0 1117.26)
(1116.85 0 0 0 1116.85 0 0 0 1116.85)
(1116.43 0 0 0 1116.43 0 0 0 1116.43)
(1115.97 0 0 0 1115.97 0 0 0 1115.97)
(1115.5 0 0 0 1115.5 0 0 0 1115.5)
(1115 0 0 0 1115 0 0 0 1115)
(1114.48 0 0 0 1114.48 0 0 0 1114.48)
(1113.94 0 0 0 1113.94 0 0 0 1113.94)
(1113.39 0 0 0 1113.39 0 0 0 1113.39)
(1112.84 0 0 0 1112.84 0 0 0 1112.84)
(1112.28 0 0 0 1112.28 0 0 0 1112.28)
(1111.73 0 0 0 1111.73 0 0 0 1111.73)
(1111.2 0 0 0 1111.2 0 0 0 1111.2)
(1110.67 0 0 0 1110.67 0 0 0 1110.67)
(1110.16 0 0 0 1110.16 0 0 0 1110.16)
(1109.65 0 0 0 1109.65 0 0 0 1109.65)
(1109.16 0 0 0 1109.16 0 0 0 1109.16)
(1108.67 0 0 0 1108.67 0 0 0 1108.67)
(1108.17 0 0 0 1108.17 0 0 0 1108.17)
(1107.67 0 0 0 1107.67 0 0 0 1107.67)
(1107.15 0 0 0 1107.15 0 0 0 1107.15)
)
;

boundaryField
{
    inlet
    {
        type            zeroGradient;
    }
    outlet
    {
        type            zeroGradient;
    }
    fixedWalls
    {
        type            zeroGradient;
    }
}


// ************************************************************************* //
