/*--------------------------------*- C++ -*----------------------------------*\
| =========                 |                                                 |
| \\      /  F ield         | OpenFOAM: The Open Source CFD Toolbox           |
|  \\    /   O peration     | Version:  2406                                  |
|   \\  /    A nd           | Website:  www.openfoam.com                      |
|    \\/     M anipulation  |                                                 |
\*---------------------------------------------------------------------------*/
FoamFile
{
    version     2.0;
    format      ascii;
    arch        "LSB;label=32;scalar=64";
    class       volScalarField;
    location    "30/fluidRegion";
    object      dgdt.vapour;
}
// * * * * * * * * * * * * * * * * * * * * * * * * * * * * * * * * * * * * * //

dimensions      [0 0 -1 0 0 0 0];

internalField   nonuniform List<scalar> 
70
(
-1.4027e-172
-1.54789e-172
-1.35226e-172
-1.32822e-172
-1.00731e-172
-5.11257e-172
-4.37447e-171
-8.29895e-173
-4.87835e-173
-4.44938e-173
-5.77877e-172
-4.10464e-173
-5.4161e-173
-4.14063e-173
-5.55739e-172
-2.49057e-173
-7.95514e-172
-1.752e-171
-1.51812e-171
-1.15622e-171
-1.03834e-171
-1.24954e-171
-1.07359e-171
-1.652e-171
-6.35098e-171
-4.1519e-171
-1.41197e-171
-3.92645e-172
-6.27641e-172
-5.13095e-172
-2.57672e-171
-1.38378e-172
-1.23926e-172
-4.17858e-172
-1.19735e-171
-4.31522e-173
-7.51947e-172
-6.3741e-172
-2.20051e-171
-7.83775e-172
-7.47498e-173
-2.54743e-172
-1.60568e-171
0.00773344
0.0425746
0.0749324
0.106979
0.139018
0.171641
0.205204
0.239966
0.276078
0.313588
0.352444
0.392497
0.433501
0.475124
0.516953
0.558519
0.599308
0.638041
0.662903
0.689028
0.71575
0.742424
0.768448
0.793279
0.816456
0.837638
0.856228
)
;

boundaryField
{
    inlet
    {
        type            calculated;
        value           uniform -1.4027e-172;
    }
    outlet
    {
        type            calculated;
        value           uniform 0.856228;
    }
    fixedWalls
    {
        type            calculated;
        value           nonuniform List<scalar> 
280
(
-1.4027e-172
-1.54789e-172
-1.35226e-172
-1.32822e-172
-1.00731e-172
-5.11257e-172
-4.37447e-171
-8.29895e-173
-4.87835e-173
-4.44938e-173
-5.77877e-172
-4.10464e-173
-5.4161e-173
-4.14063e-173
-5.55739e-172
-2.49057e-173
-7.95514e-172
-1.752e-171
-1.51812e-171
-1.15622e-171
-1.03834e-171
-1.24954e-171
-1.07359e-171
-1.652e-171
-6.35098e-171
-4.1519e-171
-1.41197e-171
-3.92645e-172
-6.27641e-172
-5.13095e-172
-2.57672e-171
-1.38378e-172
-1.23926e-172
-4.17858e-172
-1.19735e-171
-4.31522e-173
-7.51947e-172
-6.3741e-172
-2.20051e-171
-7.83775e-172
-7.47498e-173
-2.54743e-172
-1.60568e-171
0.00773344
0.0425746
0.0749324
0.106979
0.139018
0.171641
0.205204
0.239966
0.276078
0.313588
0.352444
0.392497
0.433501
0.475124
0.516953
0.558519
0.599308
0.638041
0.662903
0.689028
0.71575
0.742424
0.768448
0.793279
0.816456
0.837638
0.856228
-1.4027e-172
-1.54789e-172
-1.35226e-172
-1.32822e-172
-1.00731e-172
-5.11257e-172
-4.37447e-171
-8.29895e-173
-4.87835e-173
-4.44938e-173
-5.77877e-172
-4.10464e-173
-5.4161e-173
-4.14063e-173
-5.55739e-172
-2.49057e-173
-7.95514e-172
-1.752e-171
-1.51812e-171
-1.15622e-171
-1.03834e-171
-1.24954e-171
-1.07359e-171
-1.652e-171
-6.35098e-171
-4.1519e-171
-1.41197e-171
-3.92645e-172
-6.27641e-172
-5.13095e-172
-2.57672e-171
-1.38378e-172
-1.23926e-172
-4.17858e-172
-1.19735e-171
-4.31522e-173
-7.51947e-172
-6.3741e-172
-2.20051e-171
-7.83775e-172
-7.47498e-173
-2.54743e-172
-1.60568e-171
0.00773344
0.0425746
0.0749324
0.106979
0.139018
0.171641
0.205204
0.239966
0.276078
0.313588
0.352444
0.392497
0.433501
0.475124
0.516953
0.558519
0.599308
0.638041
0.662903
0.689028
0.71575
0.742424
0.768448
0.793279
0.816456
0.837638
0.856228
-1.4027e-172
-1.54789e-172
-1.35226e-172
-1.32822e-172
-1.00731e-172
-5.11257e-172
-4.37447e-171
-8.29895e-173
-4.87835e-173
-4.44938e-173
-5.77877e-172
-4.10464e-173
-5.4161e-173
-4.14063e-173
-5.55739e-172
-2.49057e-173
-7.95514e-172
-1.752e-171
-1.51812e-171
-1.15622e-171
-1.03834e-171
-1.24954e-171
-1.07359e-171
-1.652e-171
-6.35098e-171
-4.1519e-171
-1.41197e-171
-3.92645e-172
-6.27641e-172
-5.13095e-172
-2.57672e-171
-1.38378e-172
-1.23926e-172
-4.17858e-172
-1.19735e-171
-4.31522e-173
-7.51947e-172
-6.3741e-172
-2.20051e-171
-7.83775e-172
-7.47498e-173
-2.54743e-172
-1.60568e-171
0.00773344
0.0425746
0.0749324
0.106979
0.139018
0.171641
0.205204
0.239966
0.276078
0.313588
0.352444
0.392497
0.433501
0.475124
0.516953
0.558519
0.599308
0.638041
0.662903
0.689028
0.71575
0.742424
0.768448
0.793279
0.816456
0.837638
0.856228
-1.4027e-172
-1.54789e-172
-1.35226e-172
-1.32822e-172
-1.00731e-172
-5.11257e-172
-4.37447e-171
-8.29895e-173
-4.87835e-173
-4.44938e-173
-5.77877e-172
-4.10464e-173
-5.4161e-173
-4.14063e-173
-5.55739e-172
-2.49057e-173
-7.95514e-172
-1.752e-171
-1.51812e-171
-1.15622e-171
-1.03834e-171
-1.24954e-171
-1.07359e-171
-1.652e-171
-6.35098e-171
-4.1519e-171
-1.41197e-171
-3.92645e-172
-6.27641e-172
-5.13095e-172
-2.57672e-171
-1.38378e-172
-1.23926e-172
-4.17858e-172
-1.19735e-171
-4.31522e-173
-7.51947e-172
-6.3741e-172
-2.20051e-171
-7.83775e-172
-7.47498e-173
-2.54743e-172
-1.60568e-171
0.00773344
0.0425746
0.0749324
0.106979
0.139018
0.171641
0.205204
0.239966
0.276078
0.313588
0.352444
0.392497
0.433501
0.475124
0.516953
0.558519
0.599308
0.638041
0.662903
0.689028
0.71575
0.742424
0.768448
0.793279
0.816456
0.837638
0.856228
)
;
    }
}


// ************************************************************************* //
