/*--------------------------------*- C++ -*----------------------------------*\
| =========                 |                                                 |
| \\      /  F ield         | OpenFOAM: The Open Source CFD Toolbox           |
|  \\    /   O peration     | Version:  2406                                  |
|   \\  /    A nd           | Website:  www.openfoam.com                      |
|    \\/     M anipulation  |                                                 |
\*---------------------------------------------------------------------------*/
FoamFile
{
    version     2.0;
    format      ascii;
    arch        "LSB;label=32;scalar=64";
    class       volTensorField;
    location    "30/fluidRegion";
    object      Kd.liquid.structure;
}
// * * * * * * * * * * * * * * * * * * * * * * * * * * * * * * * * * * * * * //

dimensions      [1 -3 -1 0 0 0 0];

internalField   nonuniform List<tensor> 
70
(
(418.285 0 0 0 418.285 0 0 0 418.285)
(418.1 0 0 0 418.1 0 0 0 418.1)
(417.915 0 0 0 417.915 0 0 0 417.915)
(417.732 0 0 0 417.732 0 0 0 417.732)
(417.549 0 0 0 417.549 0 0 0 417.549)
(417.367 0 0 0 417.367 0 0 0 417.367)
(417.187 0 0 0 417.187 0 0 0 417.187)
(417.007 0 0 0 417.007 0 0 0 417.007)
(416.828 0 0 0 416.828 0 0 0 416.828)
(416.649 0 0 0 416.649 0 0 0 416.649)
(416.472 0 0 0 416.472 0 0 0 416.472)
(416.295 0 0 0 416.295 0 0 0 416.295)
(416.12 0 0 0 416.12 0 0 0 416.12)
(415.945 0 0 0 415.945 0 0 0 415.945)
(415.771 0 0 0 415.771 0 0 0 415.771)
(415.598 0 0 0 415.598 0 0 0 415.598)
(415.425 0 0 0 415.425 0 0 0 415.425)
(415.254 0 0 0 415.254 0 0 0 415.254)
(415.083 0 0 0 415.083 0 0 0 415.083)
(414.913 0 0 0 414.913 0 0 0 414.913)
(414.743 0 0 0 414.743 0 0 0 414.743)
(414.575 0 0 0 414.575 0 0 0 414.575)
(414.407 0 0 0 414.407 0 0 0 414.407)
(414.24 0 0 0 414.24 0 0 0 414.24)
(414.073 0 0 0 414.073 0 0 0 414.073)
(413.907 0 0 0 413.907 0 0 0 413.907)
(413.742 0 0 0 413.742 0 0 0 413.742)
(413.578 0 0 0 413.578 0 0 0 413.578)
(413.415 0 0 0 413.415 0 0 0 413.415)
(413.252 0 0 0 413.252 0 0 0 413.252)
(413.089 0 0 0 413.089 0 0 0 413.089)
(412.928 0 0 0 412.928 0 0 0 412.928)
(412.767 0 0 0 412.767 0 0 0 412.767)
(412.607 0 0 0 412.607 0 0 0 412.607)
(412.447 0 0 0 412.447 0 0 0 412.447)
(412.288 0 0 0 412.288 0 0 0 412.288)
(412.13 0 0 0 412.13 0 0 0 412.13)
(411.972 0 0 0 411.972 0 0 0 411.972)
(411.815 0 0 0 411.815 0 0 0 411.815)
(411.658 0 0 0 411.658 0 0 0 411.658)
(411.502 0 0 0 411.502 0 0 0 411.502)
(411.347 0 0 0 411.347 0 0 0 411.347)
(411.192 0 0 0 411.192 0 0 0 411.192)
(412.175 0 0 0 412.175 0 0 0 412.175)
(417.197 0 0 0 417.197 0 0 0 417.197)
(426.234 0 0 0 426.234 0 0 0 426.234)
(437.898 0 0 0 437.898 0 0 0 437.898)
(452.288 0 0 0 452.288 0 0 0 452.288)
(469.205 0 0 0 469.205 0 0 0 469.205)
(488.605 0 0 0 488.605 0 0 0 488.605)
(510.441 0 0 0 510.441 0 0 0 510.441)
(534.689 0 0 0 534.689 0 0 0 534.689)
(561.322 0 0 0 561.322 0 0 0 561.322)
(590.304 0 0 0 590.304 0 0 0 590.304)
(621.584 0 0 0 621.584 0 0 0 621.584)
(655.09 0 0 0 655.09 0 0 0 655.09)
(690.725 0 0 0 690.725 0 0 0 690.725)
(728.363 0 0 0 728.363 0 0 0 728.363)
(767.854 0 0 0 767.854 0 0 0 767.854)
(809.017 0 0 0 809.017 0 0 0 809.017)
(851.575 0 0 0 851.575 0 0 0 851.575)
(894.713 0 0 0 894.713 0 0 0 894.713)
(938.321 0 0 0 938.321 0 0 0 938.321)
(982.393 0 0 0 982.393 0 0 0 982.393)
(1026.9 0 0 0 1026.9 0 0 0 1026.9)
(1071.78 0 0 0 1071.78 0 0 0 1071.78)
(1116.95 0 0 0 1116.95 0 0 0 1116.95)
(1162.28 0 0 0 1162.28 0 0 0 1162.28)
(1207.74 0 0 0 1207.74 0 0 0 1207.74)
(1251.89 0 0 0 1251.89 0 0 0 1251.89)
)
;

boundaryField
{
    inlet
    {
        type            zeroGradient;
    }
    outlet
    {
        type            zeroGradient;
    }
    fixedWalls
    {
        type            zeroGradient;
    }
}


// ************************************************************************* //
