/*--------------------------------*- C++ -*----------------------------------*\
| =========                 |                                                 |
| \\      /  F ield         | OpenFOAM: The Open Source CFD Toolbox           |
|  \\    /   O peration     | Version:  2406                                  |
|   \\  /    A nd           | Website:  www.openfoam.com                      |
|    \\/     M anipulation  |                                                 |
\*---------------------------------------------------------------------------*/
FoamFile
{
    version     2.0;
    format      ascii;
    arch        "LSB;label=32;scalar=64";
    class       volTensorField;
    location    "30/fluidRegion";
    object      KdTotU;
}
// * * * * * * * * * * * * * * * * * * * * * * * * * * * * * * * * * * * * * //

dimensions      [1 -2 -2 0 0 0 0];

internalField   nonuniform List<tensor> 
70
(
(539.272 0 0 0 539.272 0 0 0 539.272)
(539.181 0 0 0 539.181 0 0 0 539.181)
(539.095 0 0 0 539.095 0 0 0 539.095)
(539.013 0 0 0 539.013 0 0 0 539.013)
(538.935 0 0 0 538.935 0 0 0 538.935)
(538.862 0 0 0 538.862 0 0 0 538.862)
(538.794 0 0 0 538.794 0 0 0 538.794)
(538.729 0 0 0 538.729 0 0 0 538.729)
(538.669 0 0 0 538.669 0 0 0 538.669)
(538.614 0 0 0 538.614 0 0 0 538.614)
(538.562 0 0 0 538.562 0 0 0 538.562)
(538.515 0 0 0 538.515 0 0 0 538.515)
(538.472 0 0 0 538.472 0 0 0 538.472)
(538.433 0 0 0 538.433 0 0 0 538.433)
(538.399 0 0 0 538.399 0 0 0 538.399)
(538.369 0 0 0 538.369 0 0 0 538.369)
(538.342 0 0 0 538.342 0 0 0 538.342)
(538.32 0 0 0 538.32 0 0 0 538.32)
(538.302 0 0 0 538.302 0 0 0 538.302)
(538.289 0 0 0 538.289 0 0 0 538.289)
(538.279 0 0 0 538.279 0 0 0 538.279)
(538.273 0 0 0 538.273 0 0 0 538.273)
(538.271 0 0 0 538.271 0 0 0 538.271)
(538.274 0 0 0 538.274 0 0 0 538.274)
(538.28 0 0 0 538.28 0 0 0 538.28)
(538.29 0 0 0 538.29 0 0 0 538.29)
(538.304 0 0 0 538.304 0 0 0 538.304)
(538.323 0 0 0 538.323 0 0 0 538.323)
(538.345 0 0 0 538.345 0 0 0 538.345)
(538.371 0 0 0 538.371 0 0 0 538.371)
(538.4 0 0 0 538.4 0 0 0 538.4)
(538.434 0 0 0 538.434 0 0 0 538.434)
(538.472 0 0 0 538.472 0 0 0 538.472)
(538.513 0 0 0 538.513 0 0 0 538.513)
(538.558 0 0 0 538.558 0 0 0 538.558)
(538.607 0 0 0 538.607 0 0 0 538.607)
(538.66 0 0 0 538.66 0 0 0 538.66)
(538.717 0 0 0 538.717 0 0 0 538.717)
(538.777 0 0 0 538.777 0 0 0 538.777)
(538.841 0 0 0 538.841 0 0 0 538.841)
(538.908 0 0 0 538.908 0 0 0 538.908)
(538.98 0 0 0 538.98 0 0 0 538.98)
(539.055 0 0 0 539.055 0 0 0 539.055)
(540.674 0 0 0 540.674 0 0 0 540.674)
(547.799 0 0 0 547.799 0 0 0 547.799)
(560.501 0 0 0 560.501 0 0 0 560.501)
(576.959 0 0 0 576.959 0 0 0 576.959)
(597.335 0 0 0 597.335 0 0 0 597.335)
(621.421 0 0 0 621.421 0 0 0 621.421)
(649.216 0 0 0 649.216 0 0 0 649.216)
(680.733 0 0 0 680.733 0 0 0 680.733)
(716.021 0 0 0 716.021 0 0 0 716.021)
(755.133 0 0 0 755.133 0 0 0 755.133)
(798.124 0 0 0 798.124 0 0 0 798.124)
(845.031 0 0 0 845.031 0 0 0 845.031)
(895.867 0 0 0 895.867 0 0 0 895.867)
(950.613 0 0 0 950.613 0 0 0 950.613)
(1009.21 0 0 0 1009.21 0 0 0 1009.21)
(1071.55 0 0 0 1071.55 0 0 0 1071.55)
(1137.5 0 0 0 1137.5 0 0 0 1137.5)
(1206.72 0 0 0 1206.72 0 0 0 1206.72)
(1278.03 0 0 0 1278.03 0 0 0 1278.03)
(1351.25 0 0 0 1351.25 0 0 0 1351.25)
(1426.43 0 0 0 1426.43 0 0 0 1426.43)
(1503.58 0 0 0 1503.58 0 0 0 1503.58)
(1582.63 0 0 0 1582.63 0 0 0 1582.63)
(1663.46 0 0 0 1663.46 0 0 0 1663.46)
(1745.9 0 0 0 1745.9 0 0 0 1745.9)
(1829.9 0 0 0 1829.9 0 0 0 1829.9)
(1912.21 0 0 0 1912.21 0 0 0 1912.21)
)
;

boundaryField
{
    inlet
    {
        type            zeroGradient;
    }
    outlet
    {
        type            zeroGradient;
    }
    fixedWalls
    {
        type            zeroGradient;
    }
}


// ************************************************************************* //
