/*--------------------------------*- C++ -*----------------------------------*\
| =========                 |                                                 |
| \\      /  F ield         | OpenFOAM: The Open Source CFD Toolbox           |
|  \\    /   O peration     | Version:  2406                                  |
|   \\  /    A nd           | Website:  www.openfoam.com                      |
|    \\/     M anipulation  |                                                 |
\*---------------------------------------------------------------------------*/
FoamFile
{
    version     2.0;
    format      ascii;
    arch        "LSB;label=32;scalar=64";
    class       volScalarField;
    location    "30/fluidRegion";
    object      p;
}
// * * * * * * * * * * * * * * * * * * * * * * * * * * * * * * * * * * * * * //

dimensions      [1 -1 -2 0 0 0 0];

internalField   nonuniform List<scalar> 
70
(
7.21324e+06
7.21305e+06
7.21286e+06
7.21267e+06
7.21248e+06
7.21229e+06
7.2121e+06
7.21191e+06
7.21172e+06
7.21153e+06
7.21134e+06
7.21115e+06
7.21096e+06
7.21077e+06
7.21058e+06
7.21039e+06
7.2102e+06
7.21001e+06
7.20982e+06
7.20963e+06
7.20944e+06
7.20925e+06
7.20906e+06
7.20888e+06
7.20869e+06
7.2085e+06
7.20831e+06
7.20812e+06
7.20793e+06
7.20774e+06
7.20755e+06
7.20737e+06
7.20718e+06
7.20699e+06
7.2068e+06
7.20661e+06
7.20642e+06
7.20624e+06
7.20605e+06
7.20586e+06
7.20567e+06
7.20548e+06
7.2053e+06
7.20511e+06
7.20492e+06
7.20473e+06
7.20454e+06
7.20435e+06
7.20416e+06
7.20396e+06
7.20377e+06
7.20357e+06
7.20338e+06
7.20318e+06
7.20298e+06
7.20277e+06
7.20257e+06
7.20236e+06
7.20215e+06
7.20194e+06
7.20173e+06
7.20151e+06
7.20129e+06
7.20107e+06
7.20085e+06
7.20062e+06
7.20039e+06
7.20016e+06
7.19993e+06
7.19969e+06
)
;

boundaryField
{
    inlet
    {
        type            calculated;
        value           uniform 7.21333e+06;
    }
    outlet
    {
        type            calculated;
        value           uniform 7.19957e+06;
    }
    fixedWalls
    {
        type            calculated;
        value           nonuniform List<scalar> 
280
(
7.21324e+06
7.21305e+06
7.21286e+06
7.21267e+06
7.21248e+06
7.21229e+06
7.2121e+06
7.21191e+06
7.21172e+06
7.21153e+06
7.21134e+06
7.21115e+06
7.21096e+06
7.21077e+06
7.21058e+06
7.21039e+06
7.2102e+06
7.21001e+06
7.20982e+06
7.20963e+06
7.20944e+06
7.20925e+06
7.20906e+06
7.20888e+06
7.20869e+06
7.2085e+06
7.20831e+06
7.20812e+06
7.20793e+06
7.20774e+06
7.20755e+06
7.20737e+06
7.20718e+06
7.20699e+06
7.2068e+06
7.20661e+06
7.20642e+06
7.20624e+06
7.20605e+06
7.20586e+06
7.20567e+06
7.20548e+06
7.2053e+06
7.20511e+06
7.20492e+06
7.20473e+06
7.20454e+06
7.20435e+06
7.20416e+06
7.20396e+06
7.20377e+06
7.20357e+06
7.20338e+06
7.20318e+06
7.20298e+06
7.20277e+06
7.20257e+06
7.20236e+06
7.20215e+06
7.20194e+06
7.20173e+06
7.20151e+06
7.20129e+06
7.20107e+06
7.20085e+06
7.20062e+06
7.20039e+06
7.20016e+06
7.19993e+06
7.19969e+06
7.21324e+06
7.21305e+06
7.21286e+06
7.21267e+06
7.21248e+06
7.21229e+06
7.2121e+06
7.21191e+06
7.21172e+06
7.21153e+06
7.21134e+06
7.21115e+06
7.21096e+06
7.21077e+06
7.21058e+06
7.21039e+06
7.2102e+06
7.21001e+06
7.20982e+06
7.20963e+06
7.20944e+06
7.20925e+06
7.20906e+06
7.20888e+06
7.20869e+06
7.2085e+06
7.20831e+06
7.20812e+06
7.20793e+06
7.20774e+06
7.20755e+06
7.20737e+06
7.20718e+06
7.20699e+06
7.2068e+06
7.20661e+06
7.20642e+06
7.20624e+06
7.20605e+06
7.20586e+06
7.20567e+06
7.20548e+06
7.2053e+06
7.20511e+06
7.20492e+06
7.20473e+06
7.20454e+06
7.20435e+06
7.20416e+06
7.20396e+06
7.20377e+06
7.20357e+06
7.20338e+06
7.20318e+06
7.20298e+06
7.20277e+06
7.20257e+06
7.20236e+06
7.20215e+06
7.20194e+06
7.20173e+06
7.20151e+06
7.20129e+06
7.20107e+06
7.20085e+06
7.20062e+06
7.20039e+06
7.20016e+06
7.19993e+06
7.19969e+06
7.21324e+06
7.21305e+06
7.21286e+06
7.21267e+06
7.21248e+06
7.21229e+06
7.2121e+06
7.21191e+06
7.21172e+06
7.21153e+06
7.21134e+06
7.21115e+06
7.21096e+06
7.21077e+06
7.21058e+06
7.21039e+06
7.2102e+06
7.21001e+06
7.20982e+06
7.20963e+06
7.20944e+06
7.20925e+06
7.20906e+06
7.20888e+06
7.20869e+06
7.2085e+06
7.20831e+06
7.20812e+06
7.20793e+06
7.20774e+06
7.20755e+06
7.20737e+06
7.20718e+06
7.20699e+06
7.2068e+06
7.20661e+06
7.20642e+06
7.20624e+06
7.20605e+06
7.20586e+06
7.20567e+06
7.20548e+06
7.2053e+06
7.20511e+06
7.20492e+06
7.20473e+06
7.20454e+06
7.20435e+06
7.20416e+06
7.20396e+06
7.20377e+06
7.20357e+06
7.20338e+06
7.20318e+06
7.20298e+06
7.20277e+06
7.20257e+06
7.20236e+06
7.20215e+06
7.20194e+06
7.20173e+06
7.20151e+06
7.20129e+06
7.20107e+06
7.20085e+06
7.20062e+06
7.20039e+06
7.20016e+06
7.19993e+06
7.19969e+06
7.21324e+06
7.21305e+06
7.21286e+06
7.21267e+06
7.21248e+06
7.21229e+06
7.2121e+06
7.21191e+06
7.21172e+06
7.21153e+06
7.21134e+06
7.21115e+06
7.21096e+06
7.21077e+06
7.21058e+06
7.21039e+06
7.2102e+06
7.21001e+06
7.20982e+06
7.20963e+06
7.20944e+06
7.20925e+06
7.20906e+06
7.20888e+06
7.20869e+06
7.2085e+06
7.20831e+06
7.20812e+06
7.20793e+06
7.20774e+06
7.20755e+06
7.20737e+06
7.20718e+06
7.20699e+06
7.2068e+06
7.20661e+06
7.20642e+06
7.20624e+06
7.20605e+06
7.20586e+06
7.20567e+06
7.20548e+06
7.2053e+06
7.20511e+06
7.20492e+06
7.20473e+06
7.20454e+06
7.20435e+06
7.20416e+06
7.20396e+06
7.20377e+06
7.20357e+06
7.20338e+06
7.20318e+06
7.20298e+06
7.20277e+06
7.20257e+06
7.20236e+06
7.20215e+06
7.20194e+06
7.20173e+06
7.20151e+06
7.20129e+06
7.20107e+06
7.20085e+06
7.20062e+06
7.20039e+06
7.20016e+06
7.19993e+06
7.19969e+06
)
;
    }
}


// ************************************************************************* //
