/*--------------------------------*- C++ -*----------------------------------*\
| =========                 |                                                 |
| \\      /  F ield         | OpenFOAM: The Open Source CFD Toolbox           |
|  \\    /   O peration     | Version:  2406                                  |
|   \\  /    A nd           | Website:  www.openfoam.com                      |
|    \\/     M anipulation  |                                                 |
\*---------------------------------------------------------------------------*/
FoamFile
{
    version     2.0;
    format      ascii;
    arch        "LSB;label=32;scalar=64";
    class       volScalarField;
    location    "30/fluidRegion";
    object      alphaRhoMagU.vapour;
}
// * * * * * * * * * * * * * * * * * * * * * * * * * * * * * * * * * * * * * //

dimensions      [1 -2 -1 0 0 0 0];

internalField   nonuniform List<scalar> 
70
(
0
0
0.0464984
0.161606
0.320497
0.529365
0.78977
1.10898
1.49592
1.96169
2.51894
3.1814
3.96308
4.87717
5.93469
7.14274
8.50837
10.1011
11.8353
13.6455
15.5037
17.39
19.2913
21.2041
23.1275
25.0608
27.0038
28.9559
30.9171
32.8869
34.8653
36.852
38.8468
40.8498
42.863
44.887
46.9217
48.9669
51.0223
53.0876
55.1628
57.2471
59.3425
61.4296
63.4858
65.5362
67.5856
69.6355
71.6868
73.7398
75.7952
77.8532
79.9142
81.9784
84.046
86.1171
88.192
90.2706
92.353
94.4392
96.5293
98.6233
100.721
102.823
104.928
107.038
109.147
111.277
113.348
115.649
)
;

boundaryField
{
    inlet
    {
        type            calculated;
        value           uniform 0;
    }
    outlet
    {
        type            calculated;
        value           uniform 115.64;
    }
    fixedWalls
    {
        type            calculated;
        value           nonuniform List<scalar> 
280
(
0
0
0.0464984
0.161606
0.320497
0.529365
0.78977
1.10898
1.49592
1.96169
2.51894
3.1814
3.96308
4.87717
5.93469
7.14274
8.50837
10.1011
11.8353
13.6455
15.5037
17.39
19.2913
21.2041
23.1275
25.0608
27.0038
28.9559
30.9171
32.8869
34.8653
36.852
38.8468
40.8498
42.863
44.887
46.9217
48.9669
51.0223
53.0876
55.1628
57.2471
59.3425
61.4296
63.4858
65.5362
67.5856
69.6355
71.6868
73.7398
75.7952
77.8532
79.9142
81.9784
84.046
86.1171
88.192
90.2706
92.353
94.4392
96.5293
98.6233
100.721
102.823
104.928
107.038
109.147
111.277
113.348
115.649
0
0
0.0464984
0.161606
0.320497
0.529365
0.78977
1.10898
1.49592
1.96169
2.51894
3.1814
3.96308
4.87717
5.93469
7.14274
8.50837
10.1011
11.8353
13.6455
15.5037
17.39
19.2913
21.2041
23.1275
25.0608
27.0038
28.9559
30.9171
32.8869
34.8653
36.852
38.8468
40.8498
42.863
44.887
46.9217
48.9669
51.0223
53.0876
55.1628
57.2471
59.3425
61.4296
63.4858
65.5362
67.5856
69.6355
71.6868
73.7398
75.7952
77.8532
79.9142
81.9784
84.046
86.1171
88.192
90.2706
92.353
94.4392
96.5293
98.6233
100.721
102.823
104.928
107.038
109.147
111.277
113.348
115.649
0
0
0.0464984
0.161606
0.320497
0.529365
0.78977
1.10898
1.49592
1.96169
2.51894
3.1814
3.96308
4.87717
5.93469
7.14274
8.50837
10.1011
11.8353
13.6455
15.5037
17.39
19.2913
21.2041
23.1275
25.0608
27.0038
28.9559
30.9171
32.8869
34.8653
36.852
38.8468
40.8498
42.863
44.887
46.9217
48.9669
51.0223
53.0876
55.1628
57.2471
59.3425
61.4296
63.4858
65.5362
67.5856
69.6355
71.6868
73.7398
75.7952
77.8532
79.9142
81.9784
84.046
86.1171
88.192
90.2706
92.353
94.4392
96.5293
98.6233
100.721
102.823
104.928
107.038
109.147
111.277
113.348
115.649
0
0
0.0464984
0.161606
0.320497
0.529365
0.78977
1.10898
1.49592
1.96169
2.51894
3.1814
3.96308
4.87717
5.93469
7.14274
8.50837
10.1011
11.8353
13.6455
15.5037
17.39
19.2913
21.2041
23.1275
25.0608
27.0038
28.9559
30.9171
32.8869
34.8653
36.852
38.8468
40.8498
42.863
44.887
46.9217
48.9669
51.0223
53.0876
55.1628
57.2471
59.3425
61.4296
63.4858
65.5362
67.5856
69.6355
71.6868
73.7398
75.7952
77.8532
79.9142
81.9784
84.046
86.1171
88.192
90.2706
92.353
94.4392
96.5293
98.6233
100.721
102.823
104.928
107.038
109.147
111.277
113.348
115.649
)
;
    }
}


// ************************************************************************* //
