/*--------------------------------*- C++ -*----------------------------------*\
| =========                 |                                                 |
| \\      /  F ield         | OpenFOAM: The Open Source CFD Toolbox           |
|  \\    /   O peration     | Version:  2406                                  |
|   \\  /    A nd           | Website:  www.openfoam.com                      |
|    \\/     M anipulation  |                                                 |
\*---------------------------------------------------------------------------*/
FoamFile
{
    version     2.0;
    format      ascii;
    arch        "LSB;label=32;scalar=64";
    class       volScalarField;
    location    "30/fluidRegion";
    object      dgdt.vapour;
}
// * * * * * * * * * * * * * * * * * * * * * * * * * * * * * * * * * * * * * //

dimensions      [0 0 -1 0 0 0 0];

internalField   nonuniform List<scalar> 
70
(
-0
-0
0.0934023
0.178643
0.259249
0.337637
0.422732
0.519115
0.630876
0.761357
0.913323
1.08864
1.2878
1.50932
1.74924
2.00097
2.25535
2.67141
2.86632
2.97174
3.04536
3.08342
3.10274
3.11977
3.13544
3.15027
3.16451
3.17833
3.1918
3.20499
3.2179
3.23057
3.24298
3.25558
3.27293
3.2901
3.30702
3.32365
3.33995
3.35587
3.37139
3.38649
3.40113
3.41531
3.36893
3.34471
3.33572
3.33297
3.33351
3.33604
3.33989
3.34466
3.35008
3.35601
3.3623
3.36887
3.37566
3.3826
3.38966
3.3968
3.404
3.41122
3.41845
3.42567
3.43288
3.44003
3.44722
3.45407
3.46192
3.48005
)
;

boundaryField
{
    inlet
    {
        type            calculated;
        value           uniform -0;
    }
    outlet
    {
        type            calculated;
        value           uniform 3.48005;
    }
    fixedWalls
    {
        type            calculated;
        value           nonuniform List<scalar> 
280
(
-0
-0
0.0934023
0.178643
0.259249
0.337637
0.422732
0.519115
0.630876
0.761357
0.913323
1.08864
1.2878
1.50932
1.74924
2.00097
2.25535
2.67141
2.86632
2.97174
3.04536
3.08342
3.10274
3.11977
3.13544
3.15027
3.16451
3.17833
3.1918
3.20499
3.2179
3.23057
3.24298
3.25558
3.27293
3.2901
3.30702
3.32365
3.33995
3.35587
3.37139
3.38649
3.40113
3.41531
3.36893
3.34471
3.33572
3.33297
3.33351
3.33604
3.33989
3.34466
3.35008
3.35601
3.3623
3.36887
3.37566
3.3826
3.38966
3.3968
3.404
3.41122
3.41845
3.42567
3.43288
3.44003
3.44722
3.45407
3.46192
3.48005
-0
-0
0.0934023
0.178643
0.259249
0.337637
0.422732
0.519115
0.630876
0.761357
0.913323
1.08864
1.2878
1.50932
1.74924
2.00097
2.25535
2.67141
2.86632
2.97174
3.04536
3.08342
3.10274
3.11977
3.13544
3.15027
3.16451
3.17833
3.1918
3.20499
3.2179
3.23057
3.24298
3.25558
3.27293
3.2901
3.30702
3.32365
3.33995
3.35587
3.37139
3.38649
3.40113
3.41531
3.36893
3.34471
3.33572
3.33297
3.33351
3.33604
3.33989
3.34466
3.35008
3.35601
3.3623
3.36887
3.37566
3.3826
3.38966
3.3968
3.404
3.41122
3.41845
3.42567
3.43288
3.44003
3.44722
3.45407
3.46192
3.48005
-0
-0
0.0934023
0.178643
0.259249
0.337637
0.422732
0.519115
0.630876
0.761357
0.913323
1.08864
1.2878
1.50932
1.74924
2.00097
2.25535
2.67141
2.86632
2.97174
3.04536
3.08342
3.10274
3.11977
3.13544
3.15027
3.16451
3.17833
3.1918
3.20499
3.2179
3.23057
3.24298
3.25558
3.27293
3.2901
3.30702
3.32365
3.33995
3.35587
3.37139
3.38649
3.40113
3.41531
3.36893
3.34471
3.33572
3.33297
3.33351
3.33604
3.33989
3.34466
3.35008
3.35601
3.3623
3.36887
3.37566
3.3826
3.38966
3.3968
3.404
3.41122
3.41845
3.42567
3.43288
3.44003
3.44722
3.45407
3.46192
3.48005
-0
-0
0.0934023
0.178643
0.259249
0.337637
0.422732
0.519115
0.630876
0.761357
0.913323
1.08864
1.2878
1.50932
1.74924
2.00097
2.25535
2.67141
2.86632
2.97174
3.04536
3.08342
3.10274
3.11977
3.13544
3.15027
3.16451
3.17833
3.1918
3.20499
3.2179
3.23057
3.24298
3.25558
3.27293
3.2901
3.30702
3.32365
3.33995
3.35587
3.37139
3.38649
3.40113
3.41531
3.36893
3.34471
3.33572
3.33297
3.33351
3.33604
3.33989
3.34466
3.35008
3.35601
3.3623
3.36887
3.37566
3.3826
3.38966
3.3968
3.404
3.41122
3.41845
3.42567
3.43288
3.44003
3.44722
3.45407
3.46192
3.48005
)
;
    }
}


// ************************************************************************* //
