/*--------------------------------*- C++ -*----------------------------------*\
| =========                 |                                                 |
| \\      /  F ield         | OpenFOAM: The Open Source CFD Toolbox           |
|  \\    /   O peration     | Version:  2406                                  |
|   \\  /    A nd           | Website:  www.openfoam.com                      |
|    \\/     M anipulation  |                                                 |
\*---------------------------------------------------------------------------*/
FoamFile
{
    version     2.0;
    format      ascii;
    arch        "LSB;label=32;scalar=64";
    class       volTensorField;
    location    "30/fluidRegion";
    object      Kd.liquid.structure;
}
// * * * * * * * * * * * * * * * * * * * * * * * * * * * * * * * * * * * * * //

dimensions      [1 -3 -1 0 0 0 0];

internalField   nonuniform List<tensor> 
70
(
(417.601 0 0 0 417.601 0 0 0 417.601)
(416.864 0 0 0 416.864 0 0 0 416.864)
(426.064 0 0 0 426.064 0 0 0 426.064)
(446.446 0 0 0 446.446 0 0 0 446.446)
(472.068 0 0 0 472.068 0 0 0 472.068)
(503.634 0 0 0 503.634 0 0 0 503.634)
(540.814 0 0 0 540.814 0 0 0 540.814)
(584.08 0 0 0 584.08 0 0 0 584.08)
(633.967 0 0 0 633.967 0 0 0 633.967)
(691.114 0 0 0 691.114 0 0 0 691.114)
(756.14 0 0 0 756.14 0 0 0 756.14)
(829.57 0 0 0 829.57 0 0 0 829.57)
(911.734 0 0 0 911.734 0 0 0 911.734)
(1002.68 0 0 0 1002.68 0 0 0 1002.68)
(1102.11 0 0 0 1102.11 0 0 0 1102.11)
(1209.29 0 0 0 1209.29 0 0 0 1209.29)
(1323.33 0 0 0 1323.33 0 0 0 1323.33)
(1448.39 0 0 0 1448.39 0 0 0 1448.39)
(1577.14 0 0 0 1577.14 0 0 0 1577.14)
(1703.93 0 0 0 1703.93 0 0 0 1703.93)
(1826.99 0 0 0 1826.99 0 0 0 1826.99)
(1945.61 0 0 0 1945.61 0 0 0 1945.61)
(2059.55 0 0 0 2059.55 0 0 0 2059.55)
(2169.17 0 0 0 2169.17 0 0 0 2169.17)
(2274.97 0 0 0 2274.97 0 0 0 2274.97)
(2377.36 0 0 0 2377.36 0 0 0 2377.36)
(2476.73 0 0 0 2476.73 0 0 0 2476.73)
(2573.37 0 0 0 2573.37 0 0 0 2573.37)
(2667.59 0 0 0 2667.59 0 0 0 2667.59)
(2759.6 0 0 0 2759.6 0 0 0 2759.6)
(2849.62 0 0 0 2849.62 0 0 0 2849.62)
(2937.83 0 0 0 2937.83 0 0 0 2937.83)
(3024.4 0 0 0 3024.4 0 0 0 3024.4)
(3109.47 0 0 0 3109.47 0 0 0 3109.47)
(3193.24 0 0 0 3193.24 0 0 0 3193.24)
(3275.87 0 0 0 3275.87 0 0 0 3275.87)
(3357.46 0 0 0 3357.46 0 0 0 3357.46)
(3438.1 0 0 0 3438.1 0 0 0 3438.1)
(3517.86 0 0 0 3517.86 0 0 0 3517.86)
(3596.82 0 0 0 3596.82 0 0 0 3596.82)
(3675.02 0 0 0 3675.02 0 0 0 3675.02)
(3752.54 0 0 0 3752.54 0 0 0 3752.54)
(3829.33 0 0 0 3829.33 0 0 0 3829.33)
(3906.34 0 0 0 3906.34 0 0 0 3906.34)
(4038.38 0 0 0 4038.38 0 0 0 4038.38)
(4190 0 0 0 4190 0 0 0 4190)
(4342.33 0 0 0 4342.33 0 0 0 4342.33)
(4495.81 0 0 0 4495.81 0 0 0 4495.81)
(4650.69 0 0 0 4650.69 0 0 0 4650.69)
(4807.13 0 0 0 4807.13 0 0 0 4807.13)
(4965.2 0 0 0 4965.2 0 0 0 4965.2)
(5124.98 0 0 0 5124.98 0 0 0 5124.98)
(5286.51 0 0 0 5286.51 0 0 0 5286.51)
(5449.82 0 0 0 5449.82 0 0 0 5449.82)
(5614.94 0 0 0 5614.94 0 0 0 5614.94)
(5781.9 0 0 0 5781.9 0 0 0 5781.9)
(5950.72 0 0 0 5950.72 0 0 0 5950.72)
(6121.42 0 0 0 6121.42 0 0 0 6121.42)
(6294.02 0 0 0 6294.02 0 0 0 6294.02)
(6468.53 0 0 0 6468.53 0 0 0 6468.53)
(6644.98 0 0 0 6644.98 0 0 0 6644.98)
(6823.38 0 0 0 6823.38 0 0 0 6823.38)
(7003.75 0 0 0 7003.75 0 0 0 7003.75)
(7186.12 0 0 0 7186.12 0 0 0 7186.12)
(7370.43 0 0 0 7370.43 0 0 0 7370.43)
(7557.04 0 0 0 7557.04 0 0 0 7557.04)
(7744.59 0 0 0 7744.59 0 0 0 7744.59)
(7938.37 0 0 0 7938.37 0 0 0 7938.37)
(8118.71 0 0 0 8118.71 0 0 0 8118.71)
(8358.38 0 0 0 8358.38 0 0 0 8358.38)
)
;

boundaryField
{
    inlet
    {
        type            zeroGradient;
    }
    outlet
    {
        type            zeroGradient;
    }
    fixedWalls
    {
        type            zeroGradient;
    }
}


// ************************************************************************* //
