/*--------------------------------*- C++ -*----------------------------------*\
| =========                 |                                                 |
| \\      /  F ield         | OpenFOAM: The Open Source CFD Toolbox           |
|  \\    /   O peration     | Version:  2406                                  |
|   \\  /    A nd           | Website:  www.openfoam.com                      |
|    \\/     M anipulation  |                                                 |
\*---------------------------------------------------------------------------*/
FoamFile
{
    version     2.0;
    format      ascii;
    arch        "LSB;label=32;scalar=64";
    class       volTensorField;
    location    "30/fluidRegion";
    object      KdTotU;
}
// * * * * * * * * * * * * * * * * * * * * * * * * * * * * * * * * * * * * * //

dimensions      [1 -2 -2 0 0 0 0];

internalField   nonuniform List<tensor> 
70
(
(538.619 0 0 0 538.619 0 0 0 538.619)
(538.301 0 0 0 538.301 0 0 0 538.301)
(551.369 0 0 0 551.369 0 0 0 551.369)
(579.895 0 0 0 579.895 0 0 0 579.895)
(616.175 0 0 0 616.175 0 0 0 616.175)
(661.318 0 0 0 661.318 0 0 0 661.318)
(715.202 0 0 0 715.202 0 0 0 715.202)
(778.859 0 0 0 778.859 0 0 0 778.859)
(853.546 0 0 0 853.546 0 0 0 853.546)
(940.82 0 0 0 940.82 0 0 0 940.82)
(1042.4 0 0 0 1042.4 0 0 0 1042.4)
(1160.07 0 0 0 1160.07 0 0 0 1160.07)
(1295.54 0 0 0 1295.54 0 0 0 1295.54)
(1450.3 0 0 0 1450.3 0 0 0 1450.3)
(1625.39 0 0 0 1625.39 0 0 0 1625.39)
(1821.21 0 0 0 1821.21 0 0 0 1821.21)
(2037.96 0 0 0 2037.96 0 0 0 2037.96)
(2284.61 0 0 0 2284.61 0 0 0 2284.61)
(2550.19 0 0 0 2550.19 0 0 0 2550.19)
(2823.12 0 0 0 2823.12 0 0 0 2823.12)
(3098.88 0 0 0 3098.88 0 0 0 3098.88)
(3374.74 0 0 0 3374.74 0 0 0 3374.74)
(3648.89 0 0 0 3648.89 0 0 0 3648.89)
(3920.9 0 0 0 3920.9 0 0 0 3920.9)
(4190.82 0 0 0 4190.82 0 0 0 4190.82)
(4458.74 0 0 0 4458.74 0 0 0 4458.74)
(4724.74 0 0 0 4724.74 0 0 0 4724.74)
(4988.88 0 0 0 4988.88 0 0 0 4988.88)
(5251.23 0 0 0 5251.23 0 0 0 5251.23)
(5511.85 0 0 0 5511.85 0 0 0 5511.85)
(5770.77 0 0 0 5770.77 0 0 0 5770.77)
(6028.03 0 0 0 6028.03 0 0 0 6028.03)
(6283.67 0 0 0 6283.67 0 0 0 6283.67)
(6537.72 0 0 0 6537.72 0 0 0 6537.72)
(6790.44 0 0 0 6790.44 0 0 0 6790.44)
(7041.99 0 0 0 7041.99 0 0 0 7041.99)
(7292.36 0 0 0 7292.36 0 0 0 7292.36)
(7541.55 0 0 0 7541.55 0 0 0 7541.55)
(7789.55 0 0 0 7789.55 0 0 0 7789.55)
(8036.33 0 0 0 8036.33 0 0 0 8036.33)
(8281.89 0 0 0 8281.89 0 0 0 8281.89)
(8526.18 0 0 0 8526.18 0 0 0 8526.18)
(8769.2 0 0 0 8769.2 0 0 0 8769.2)
(9010.8 0 0 0 9010.8 0 0 0 9010.8)
(9372.91 0 0 0 9372.91 0 0 0 9372.91)
(9773.96 0 0 0 9773.96 0 0 0 9773.96)
(10173.1 0 0 0 10173.1 0 0 0 10173.1)
(10572.7 0 0 0 10572.7 0 0 0 10572.7)
(10974.1 0 0 0 10974.1 0 0 0 10974.1)
(11377.9 0 0 0 11377.9 0 0 0 11377.9)
(11784.3 0 0 0 11784.3 0 0 0 11784.3)
(12193.4 0 0 0 12193.4 0 0 0 12193.4)
(12605.3 0 0 0 12605.3 0 0 0 12605.3)
(13019.8 0 0 0 13019.8 0 0 0 13019.8)
(13437 0 0 0 13437 0 0 0 13437)
(13856.7 0 0 0 13856.7 0 0 0 13856.7)
(14278.8 0 0 0 14278.8 0 0 0 14278.8)
(14703.3 0 0 0 14703.3 0 0 0 14703.3)
(15130 0 0 0 15130 0 0 0 15130)
(15558.8 0 0 0 15558.8 0 0 0 15558.8)
(15989.6 0 0 0 15989.6 0 0 0 15989.6)
(16422.3 0 0 0 16422.3 0 0 0 16422.3)
(16856.8 0 0 0 16856.8 0 0 0 16856.8)
(17293.1 0 0 0 17293.1 0 0 0 17293.1)
(17730.7 0 0 0 17730.7 0 0 0 17730.7)
(18170.7 0 0 0 18170.7 0 0 0 18170.7)
(18608.9 0 0 0 18608.9 0 0 0 18608.9)
(19060.6 0 0 0 19060.6 0 0 0 19060.6)
(19468.2 0 0 0 19468.2 0 0 0 19468.2)
(20043.3 0 0 0 20043.3 0 0 0 20043.3)
)
;

boundaryField
{
    inlet
    {
        type            zeroGradient;
    }
    outlet
    {
        type            zeroGradient;
    }
    fixedWalls
    {
        type            zeroGradient;
    }
}


// ************************************************************************* //
