/*--------------------------------*- C++ -*----------------------------------*\
| =========                 |                                                 |
| \\      /  F ield         | OpenFOAM: The Open Source CFD Toolbox           |
|  \\    /   O peration     | Version:  2406                                  |
|   \\  /    A nd           | Website:  www.openfoam.com                      |
|    \\/     M anipulation  |                                                 |
\*---------------------------------------------------------------------------*/
FoamFile
{
    version     2.0;
    format      ascii;
    arch        "LSB;label=32;scalar=64";
    class       volScalarField;
    location    "30/fluidRegion";
    object      p;
}
// * * * * * * * * * * * * * * * * * * * * * * * * * * * * * * * * * * * * * //

dimensions      [1 -1 -2 0 0 0 0];

internalField   nonuniform List<scalar> 
70
(
7.23535e+06
7.23516e+06
7.23497e+06
7.23477e+06
7.23458e+06
7.23438e+06
7.23418e+06
7.23397e+06
7.23377e+06
7.23356e+06
7.23334e+06
7.23312e+06
7.23289e+06
7.23266e+06
7.23242e+06
7.23217e+06
7.23191e+06
7.23163e+06
7.23135e+06
7.23105e+06
7.23075e+06
7.23043e+06
7.2301e+06
7.22977e+06
7.22942e+06
7.22907e+06
7.22871e+06
7.22833e+06
7.22795e+06
7.22756e+06
7.22715e+06
7.22674e+06
7.22631e+06
7.22588e+06
7.22544e+06
7.22498e+06
7.22452e+06
7.22404e+06
7.22355e+06
7.22306e+06
7.22255e+06
7.22203e+06
7.2215e+06
7.22096e+06
7.22041e+06
7.21984e+06
7.21925e+06
7.21865e+06
7.21803e+06
7.21739e+06
7.21674e+06
7.21606e+06
7.21537e+06
7.21465e+06
7.21392e+06
7.21317e+06
7.2124e+06
7.21161e+06
7.2108e+06
7.20996e+06
7.20911e+06
7.20824e+06
7.20735e+06
7.20644e+06
7.20551e+06
7.20456e+06
7.20358e+06
7.20259e+06
7.20157e+06
7.20054e+06
)
;

boundaryField
{
    inlet
    {
        type            calculated;
        value           uniform 7.23544e+06;
    }
    outlet
    {
        type            calculated;
        value           uniform 7.2e+06;
    }
    fixedWalls
    {
        type            calculated;
        value           nonuniform List<scalar> 
280
(
7.23535e+06
7.23516e+06
7.23497e+06
7.23477e+06
7.23458e+06
7.23438e+06
7.23418e+06
7.23397e+06
7.23377e+06
7.23356e+06
7.23334e+06
7.23312e+06
7.23289e+06
7.23266e+06
7.23242e+06
7.23217e+06
7.23191e+06
7.23163e+06
7.23135e+06
7.23105e+06
7.23075e+06
7.23043e+06
7.2301e+06
7.22977e+06
7.22942e+06
7.22907e+06
7.22871e+06
7.22833e+06
7.22795e+06
7.22756e+06
7.22715e+06
7.22674e+06
7.22631e+06
7.22588e+06
7.22544e+06
7.22498e+06
7.22452e+06
7.22404e+06
7.22355e+06
7.22306e+06
7.22255e+06
7.22203e+06
7.2215e+06
7.22096e+06
7.22041e+06
7.21984e+06
7.21925e+06
7.21865e+06
7.21803e+06
7.21739e+06
7.21674e+06
7.21606e+06
7.21537e+06
7.21465e+06
7.21392e+06
7.21317e+06
7.2124e+06
7.21161e+06
7.2108e+06
7.20996e+06
7.20911e+06
7.20824e+06
7.20735e+06
7.20644e+06
7.20551e+06
7.20456e+06
7.20358e+06
7.20259e+06
7.20157e+06
7.20054e+06
7.23535e+06
7.23516e+06
7.23497e+06
7.23477e+06
7.23458e+06
7.23438e+06
7.23418e+06
7.23397e+06
7.23377e+06
7.23356e+06
7.23334e+06
7.23312e+06
7.23289e+06
7.23266e+06
7.23242e+06
7.23217e+06
7.23191e+06
7.23163e+06
7.23135e+06
7.23105e+06
7.23075e+06
7.23043e+06
7.2301e+06
7.22977e+06
7.22942e+06
7.22907e+06
7.22871e+06
7.22833e+06
7.22795e+06
7.22756e+06
7.22715e+06
7.22674e+06
7.22631e+06
7.22588e+06
7.22544e+06
7.22498e+06
7.22452e+06
7.22404e+06
7.22355e+06
7.22306e+06
7.22255e+06
7.22203e+06
7.2215e+06
7.22096e+06
7.22041e+06
7.21984e+06
7.21925e+06
7.21865e+06
7.21803e+06
7.21739e+06
7.21674e+06
7.21606e+06
7.21537e+06
7.21465e+06
7.21392e+06
7.21317e+06
7.2124e+06
7.21161e+06
7.2108e+06
7.20996e+06
7.20911e+06
7.20824e+06
7.20735e+06
7.20644e+06
7.20551e+06
7.20456e+06
7.20358e+06
7.20259e+06
7.20157e+06
7.20054e+06
7.23535e+06
7.23516e+06
7.23497e+06
7.23477e+06
7.23458e+06
7.23438e+06
7.23418e+06
7.23397e+06
7.23377e+06
7.23356e+06
7.23334e+06
7.23312e+06
7.23289e+06
7.23266e+06
7.23242e+06
7.23217e+06
7.23191e+06
7.23163e+06
7.23135e+06
7.23105e+06
7.23075e+06
7.23043e+06
7.2301e+06
7.22977e+06
7.22942e+06
7.22907e+06
7.22871e+06
7.22833e+06
7.22795e+06
7.22756e+06
7.22715e+06
7.22674e+06
7.22631e+06
7.22588e+06
7.22544e+06
7.22498e+06
7.22452e+06
7.22404e+06
7.22355e+06
7.22306e+06
7.22255e+06
7.22203e+06
7.2215e+06
7.22096e+06
7.22041e+06
7.21984e+06
7.21925e+06
7.21865e+06
7.21803e+06
7.21739e+06
7.21674e+06
7.21606e+06
7.21537e+06
7.21465e+06
7.21392e+06
7.21317e+06
7.2124e+06
7.21161e+06
7.2108e+06
7.20996e+06
7.20911e+06
7.20824e+06
7.20735e+06
7.20644e+06
7.20551e+06
7.20456e+06
7.20358e+06
7.20259e+06
7.20157e+06
7.20054e+06
7.23535e+06
7.23516e+06
7.23497e+06
7.23477e+06
7.23458e+06
7.23438e+06
7.23418e+06
7.23397e+06
7.23377e+06
7.23356e+06
7.23334e+06
7.23312e+06
7.23289e+06
7.23266e+06
7.23242e+06
7.23217e+06
7.23191e+06
7.23163e+06
7.23135e+06
7.23105e+06
7.23075e+06
7.23043e+06
7.2301e+06
7.22977e+06
7.22942e+06
7.22907e+06
7.22871e+06
7.22833e+06
7.22795e+06
7.22756e+06
7.22715e+06
7.22674e+06
7.22631e+06
7.22588e+06
7.22544e+06
7.22498e+06
7.22452e+06
7.22404e+06
7.22355e+06
7.22306e+06
7.22255e+06
7.22203e+06
7.2215e+06
7.22096e+06
7.22041e+06
7.21984e+06
7.21925e+06
7.21865e+06
7.21803e+06
7.21739e+06
7.21674e+06
7.21606e+06
7.21537e+06
7.21465e+06
7.21392e+06
7.21317e+06
7.2124e+06
7.21161e+06
7.2108e+06
7.20996e+06
7.20911e+06
7.20824e+06
7.20735e+06
7.20644e+06
7.20551e+06
7.20456e+06
7.20358e+06
7.20259e+06
7.20157e+06
7.20054e+06
)
;
    }
}


// ************************************************************************* //
