/*--------------------------------*- C++ -*----------------------------------*\
| =========                 |                                                 |
| \\      /  F ield         | OpenFOAM: The Open Source CFD Toolbox           |
|  \\    /   O peration     | Version:  2406                                  |
|   \\  /    A nd           | Website:  www.openfoam.com                      |
|    \\/     M anipulation  |                                                 |
\*---------------------------------------------------------------------------*/
FoamFile
{
    version     2.0;
    format      ascii;
    arch        "LSB;label=32;scalar=64";
    class       volTensorField;
    location    "30/fluidRegion";
    object      Kd.liquid.structure;
}
// * * * * * * * * * * * * * * * * * * * * * * * * * * * * * * * * * * * * * //

dimensions      [1 -3 -1 0 0 0 0];

internalField   nonuniform List<tensor> 
70
(
(417.884 0 0 0 417.884 0 0 0 417.884)
(417.372 0 0 0 417.372 0 0 0 417.372)
(416.867 0 0 0 416.867 0 0 0 416.867)
(416.369 0 0 0 416.369 0 0 0 416.369)
(415.877 0 0 0 415.877 0 0 0 415.877)
(415.391 0 0 0 415.391 0 0 0 415.391)
(414.912 0 0 0 414.912 0 0 0 414.912)
(414.438 0 0 0 414.438 0 0 0 414.438)
(413.971 0 0 0 413.971 0 0 0 413.971)
(413.508 0 0 0 413.508 0 0 0 413.508)
(413.052 0 0 0 413.052 0 0 0 413.052)
(416.095 0 0 0 416.095 0 0 0 416.095)
(432.345 0 0 0 432.345 0 0 0 432.345)
(458.427 0 0 0 458.427 0 0 0 458.427)
(491.528 0 0 0 491.528 0 0 0 491.528)
(531.903 0 0 0 531.903 0 0 0 531.903)
(579.264 0 0 0 579.264 0 0 0 579.264)
(633.839 0 0 0 633.839 0 0 0 633.839)
(695.771 0 0 0 695.771 0 0 0 695.771)
(765.086 0 0 0 765.086 0 0 0 765.086)
(841.56 0 0 0 841.56 0 0 0 841.56)
(924.664 0 0 0 924.664 0 0 0 924.664)
(1013.54 0 0 0 1013.54 0 0 0 1013.54)
(1107.07 0 0 0 1107.07 0 0 0 1107.07)
(1204.02 0 0 0 1204.02 0 0 0 1204.02)
(1300.25 0 0 0 1300.25 0 0 0 1300.25)
(1393.38 0 0 0 1393.38 0 0 0 1393.38)
(1483.19 0 0 0 1483.19 0 0 0 1483.19)
(1570.02 0 0 0 1570.02 0 0 0 1570.02)
(1654.19 0 0 0 1654.19 0 0 0 1654.19)
(1736 0 0 0 1736 0 0 0 1736)
(1815.68 0 0 0 1815.68 0 0 0 1815.68)
(1893.44 0 0 0 1893.44 0 0 0 1893.44)
(1969.46 0 0 0 1969.46 0 0 0 1969.46)
(2043.9 0 0 0 2043.9 0 0 0 2043.9)
(2116.88 0 0 0 2116.88 0 0 0 2116.88)
(2188.53 0 0 0 2188.53 0 0 0 2188.53)
(2258.94 0 0 0 2258.94 0 0 0 2258.94)
(2328.2 0 0 0 2328.2 0 0 0 2328.2)
(2396.39 0 0 0 2396.39 0 0 0 2396.39)
(2463.59 0 0 0 2463.59 0 0 0 2463.59)
(2529.85 0 0 0 2529.85 0 0 0 2529.85)
(2595.24 0 0 0 2595.24 0 0 0 2595.24)
(2659.8 0 0 0 2659.8 0 0 0 2659.8)
(2723.59 0 0 0 2723.59 0 0 0 2723.59)
(2786.64 0 0 0 2786.64 0 0 0 2786.64)
(2849.03 0 0 0 2849.03 0 0 0 2849.03)
(2910.87 0 0 0 2910.87 0 0 0 2910.87)
(2972.23 0 0 0 2972.23 0 0 0 2972.23)
(3033.16 0 0 0 3033.16 0 0 0 3033.16)
(3093.64 0 0 0 3093.64 0 0 0 3093.64)
(3153.72 0 0 0 3153.72 0 0 0 3153.72)
(3213.4 0 0 0 3213.4 0 0 0 3213.4)
(3272.69 0 0 0 3272.69 0 0 0 3272.69)
(3331.6 0 0 0 3331.6 0 0 0 3331.6)
(3390.16 0 0 0 3390.16 0 0 0 3390.16)
(3448.36 0 0 0 3448.36 0 0 0 3448.36)
(3506.22 0 0 0 3506.22 0 0 0 3506.22)
(3563.76 0 0 0 3563.76 0 0 0 3563.76)
(3620.88 0 0 0 3620.88 0 0 0 3620.88)
(3678.44 0 0 0 3678.44 0 0 0 3678.44)
(3775.66 0 0 0 3775.66 0 0 0 3775.66)
(3880.24 0 0 0 3880.24 0 0 0 3880.24)
(3984.48 0 0 0 3984.48 0 0 0 3984.48)
(4088.92 0 0 0 4088.92 0 0 0 4088.92)
(4193.83 0 0 0 4193.83 0 0 0 4193.83)
(4299.2 0 0 0 4299.2 0 0 0 4299.2)
(4405.9 0 0 0 4405.9 0 0 0 4405.9)
(4510.26 0 0 0 4510.26 0 0 0 4510.26)
(4630.09 0 0 0 4630.09 0 0 0 4630.09)
)
;

boundaryField
{
    inlet
    {
        type            zeroGradient;
    }
    outlet
    {
        type            zeroGradient;
    }
    fixedWalls
    {
        type            zeroGradient;
    }
}


// ************************************************************************* //
