/*--------------------------------*- C++ -*----------------------------------*\
| =========                 |                                                 |
| \\      /  F ield         | OpenFOAM: The Open Source CFD Toolbox           |
|  \\    /   O peration     | Version:  2406                                  |
|   \\  /    A nd           | Website:  www.openfoam.com                      |
|    \\/     M anipulation  |                                                 |
\*---------------------------------------------------------------------------*/
FoamFile
{
    version     2.0;
    format      ascii;
    arch        "LSB;label=32;scalar=64";
    class       volTensorField;
    location    "30/fluidRegion";
    object      KdTotU;
}
// * * * * * * * * * * * * * * * * * * * * * * * * * * * * * * * * * * * * * //

dimensions      [1 -2 -2 0 0 0 0];

internalField   nonuniform List<tensor> 
70
(
(538.893 0 0 0 538.893 0 0 0 538.893)
(538.66 0 0 0 538.66 0 0 0 538.66)
(538.46 0 0 0 538.46 0 0 0 538.46)
(538.294 0 0 0 538.294 0 0 0 538.294)
(538.161 0 0 0 538.161 0 0 0 538.161)
(538.06 0 0 0 538.06 0 0 0 538.06)
(537.991 0 0 0 537.991 0 0 0 537.991)
(537.953 0 0 0 537.953 0 0 0 537.953)
(537.947 0 0 0 537.947 0 0 0 537.947)
(537.971 0 0 0 537.971 0 0 0 537.971)
(538.026 0 0 0 538.026 0 0 0 538.026)
(542.864 0 0 0 542.864 0 0 0 542.864)
(566.07 0 0 0 566.07 0 0 0 566.07)
(603.946 0 0 0 603.946 0 0 0 603.946)
(652.879 0 0 0 652.879 0 0 0 652.879)
(713.599 0 0 0 713.599 0 0 0 713.599)
(786.319 0 0 0 786.319 0 0 0 786.319)
(872.08 0 0 0 872.08 0 0 0 872.08)
(971.95 0 0 0 971.95 0 0 0 971.95)
(1086.94 0 0 0 1086.94 0 0 0 1086.94)
(1217.78 0 0 0 1217.78 0 0 0 1217.78)
(1364.71 0 0 0 1364.71 0 0 0 1364.71)
(1527.36 0 0 0 1527.36 0 0 0 1527.36)
(1704.71 0 0 0 1704.71 0 0 0 1704.71)
(1895.22 0 0 0 1895.22 0 0 0 1895.22)
(2091.55 0 0 0 2091.55 0 0 0 2091.55)
(2288.37 0 0 0 2288.37 0 0 0 2288.37)
(2484.38 0 0 0 2484.38 0 0 0 2484.38)
(2679.44 0 0 0 2679.44 0 0 0 2679.44)
(2873.6 0 0 0 2873.6 0 0 0 2873.6)
(3066.89 0 0 0 3066.89 0 0 0 3066.89)
(3259.39 0 0 0 3259.39 0 0 0 3259.39)
(3451.14 0 0 0 3451.14 0 0 0 3451.14)
(3642.18 0 0 0 3642.18 0 0 0 3642.18)
(3832.55 0 0 0 3832.55 0 0 0 3832.55)
(4022.27 0 0 0 4022.27 0 0 0 4022.27)
(4211.36 0 0 0 4211.36 0 0 0 4211.36)
(4399.82 0 0 0 4399.82 0 0 0 4399.82)
(4587.67 0 0 0 4587.67 0 0 0 4587.67)
(4774.91 0 0 0 4774.91 0 0 0 4774.91)
(4961.53 0 0 0 4961.53 0 0 0 4961.53)
(5147.54 0 0 0 5147.54 0 0 0 5147.54)
(5332.93 0 0 0 5332.93 0 0 0 5332.93)
(5517.7 0 0 0 5517.7 0 0 0 5517.7)
(5701.83 0 0 0 5701.83 0 0 0 5701.83)
(5885.33 0 0 0 5885.33 0 0 0 5885.33)
(6068.26 0 0 0 6068.26 0 0 0 6068.26)
(6250.86 0 0 0 6250.86 0 0 0 6250.86)
(6433.26 0 0 0 6433.26 0 0 0 6433.26)
(6615.41 0 0 0 6615.41 0 0 0 6615.41)
(6797.29 0 0 0 6797.29 0 0 0 6797.29)
(6978.84 0 0 0 6978.84 0 0 0 6978.84)
(7160.04 0 0 0 7160.04 0 0 0 7160.04)
(7340.85 0 0 0 7340.85 0 0 0 7340.85)
(7521.23 0 0 0 7521.23 0 0 0 7521.23)
(7701.15 0 0 0 7701.15 0 0 0 7701.15)
(7880.59 0 0 0 7880.59 0 0 0 7880.59)
(8059.5 0 0 0 8059.5 0 0 0 8059.5)
(8237.86 0 0 0 8237.86 0 0 0 8237.86)
(8415.65 0 0 0 8415.65 0 0 0 8415.65)
(8592.76 0 0 0 8592.76 0 0 0 8592.76)
(8856.96 0 0 0 8856.96 0 0 0 8856.96)
(9133.26 0 0 0 9133.26 0 0 0 9133.26)
(9406.51 0 0 0 9406.51 0 0 0 9406.51)
(9679.12 0 0 0 9679.12 0 0 0 9679.12)
(9952.3 0 0 0 9952.3 0 0 0 9952.3)
(10226.1 0 0 0 10226.1 0 0 0 10226.1)
(10503.3 0 0 0 10503.3 0 0 0 10503.3)
(10772.6 0 0 0 10772.6 0 0 0 10772.6)
(11087.9 0 0 0 11087.9 0 0 0 11087.9)
)
;

boundaryField
{
    inlet
    {
        type            zeroGradient;
    }
    outlet
    {
        type            zeroGradient;
    }
    fixedWalls
    {
        type            zeroGradient;
    }
}


// ************************************************************************* //
