/*--------------------------------*- C++ -*----------------------------------*\
| =========                 |                                                 |
| \\      /  F ield         | OpenFOAM: The Open Source CFD Toolbox           |
|  \\    /   O peration     | Version:  2406                                  |
|   \\  /    A nd           | Website:  www.openfoam.com                      |
|    \\/     M anipulation  |                                                 |
\*---------------------------------------------------------------------------*/
FoamFile
{
    version     2.0;
    format      ascii;
    arch        "LSB;label=32;scalar=64";
    class       volScalarField;
    location    "16/fluidRegion";
    object      alphaRhoMagU.vapour;
}
// * * * * * * * * * * * * * * * * * * * * * * * * * * * * * * * * * * * * * //

dimensions      [1 -2 -1 0 0 0 0];

internalField   nonuniform List<scalar> 
75
(
0
0
0
0
0
0
0.113833
0.766317
1.90085
3.48145
5.58462
9.04374
13.3589
17.824
22.2066
26.477
30.6272
34.6614
38.5832
42.3962
46.1015
49.7031
53.1928
56.5337
59.7389
62.8302
65.8009
68.6568
71.4013
74.0393
76.5733
79.0074
81.3458
83.5927
85.7517
87.8261
89.8191
91.7336
93.5725
95.3382
97.0332
98.66
100.221
101.717
103.152
104.527
105.844
107.104
108.31
109.463
110.565
111.616
112.619
113.575
114.484
115.35
116.171
116.951
117.689
118.387
119.045
119.665
120.247
120.792
121.3
121.772
122.209
122.611
122.979
123.313
123.616
123.887
124.13
124.336
124.538
)
;

boundaryField
{
    inlet
    {
        type            calculated;
        value           uniform 0;
    }
    outlet
    {
        type            calculated;
        value           uniform 124.529;
    }
    fixedWalls
    {
        type            calculated;
        value           nonuniform List<scalar> 
300
(
0
0
0
0
0
0
0.113833
0.766317
1.90085
3.48145
5.58462
9.04374
13.3589
17.824
22.2066
26.477
30.6272
34.6614
38.5832
42.3962
46.1015
49.7031
53.1928
56.5337
59.7389
62.8302
65.8009
68.6568
71.4013
74.0393
76.5733
79.0074
81.3458
83.5927
85.7517
87.8261
89.8191
91.7336
93.5725
95.3382
97.0332
98.66
100.221
101.717
103.152
104.527
105.844
107.104
108.31
109.463
110.565
111.616
112.619
113.575
114.484
115.35
116.171
116.951
117.689
118.387
119.045
119.665
120.247
120.792
121.3
121.772
122.209
122.611
122.979
123.313
123.616
123.887
124.13
124.336
124.538
0
0
0
0
0
0
0.113833
0.766317
1.90085
3.48145
5.58462
9.04374
13.3589
17.824
22.2066
26.477
30.6272
34.6614
38.5832
42.3962
46.1015
49.7031
53.1928
56.5337
59.7389
62.8302
65.8009
68.6568
71.4013
74.0393
76.5733
79.0074
81.3458
83.5927
85.7517
87.8261
89.8191
91.7336
93.5725
95.3382
97.0332
98.66
100.221
101.717
103.152
104.527
105.844
107.104
108.31
109.463
110.565
111.616
112.619
113.575
114.484
115.35
116.171
116.951
117.689
118.387
119.045
119.665
120.247
120.792
121.3
121.772
122.209
122.611
122.979
123.313
123.616
123.887
124.13
124.336
124.538
0
0
0
0
0
0
0.113833
0.766317
1.90085
3.48145
5.58462
9.04374
13.3589
17.824
22.2066
26.477
30.6272
34.6614
38.5832
42.3962
46.1015
49.7031
53.1928
56.5337
59.7389
62.8302
65.8009
68.6568
71.4013
74.0393
76.5733
79.0074
81.3458
83.5927
85.7517
87.8261
89.8191
91.7336
93.5725
95.3382
97.0332
98.66
100.221
101.717
103.152
104.527
105.844
107.104
108.31
109.463
110.565
111.616
112.619
113.575
114.484
115.35
116.171
116.951
117.689
118.387
119.045
119.665
120.247
120.792
121.3
121.772
122.209
122.611
122.979
123.313
123.616
123.887
124.13
124.336
124.538
0
0
0
0
0
0
0.113833
0.766317
1.90085
3.48145
5.58462
9.04374
13.3589
17.824
22.2066
26.477
30.6272
34.6614
38.5832
42.3962
46.1015
49.7031
53.1928
56.5337
59.7389
62.8302
65.8009
68.6568
71.4013
74.0393
76.5733
79.0074
81.3458
83.5927
85.7517
87.8261
89.8191
91.7336
93.5725
95.3382
97.0332
98.66
100.221
101.717
103.152
104.527
105.844
107.104
108.31
109.463
110.565
111.616
112.619
113.575
114.484
115.35
116.171
116.951
117.689
118.387
119.045
119.665
120.247
120.792
121.3
121.772
122.209
122.611
122.979
123.313
123.616
123.887
124.13
124.336
124.538
)
;
    }
}


// ************************************************************************* //
