/*--------------------------------*- C++ -*----------------------------------*\
| =========                 |                                                 |
| \\      /  F ield         | OpenFOAM: The Open Source CFD Toolbox           |
|  \\    /   O peration     | Version:  2406                                  |
|   \\  /    A nd           | Website:  www.openfoam.com                      |
|    \\/     M anipulation  |                                                 |
\*---------------------------------------------------------------------------*/
FoamFile
{
    version     2.0;
    format      ascii;
    arch        "LSB;label=32;scalar=64";
    class       volScalarField;
    location    "16/fluidRegion";
    object      dgdt.vapour;
}
// * * * * * * * * * * * * * * * * * * * * * * * * * * * * * * * * * * * * * //

dimensions      [0 0 -1 0 0 0 0];

internalField   nonuniform List<scalar> 
75
(
-0
-0
-0
-0
-0
-0
0.194198
1.18395
1.92001
2.67783
3.52974
6.35522
7.24582
7.27985
7.12094
6.92884
6.71939
6.52296
6.33075
6.14646
5.96392
5.7901
5.62151
5.40571
5.17295
4.95533
4.75109
4.55885
4.37699
4.20488
4.03684
3.87739
3.7254
3.58002
3.44059
3.30657
3.17758
3.05326
2.93334
2.81756
2.7057
2.59756
2.49296
2.39173
2.29372
2.19878
2.10678
2.01758
1.93106
1.84709
1.76558
1.6864
1.60948
1.53467
1.46189
1.39103
1.32217
1.25479
1.18898
1.12467
1.06177
1.00021
0.939922
0.88081
0.822809
0.765849
0.709861
0.654776
0.600526
0.547034
0.494207
0.441918
0.389958
0.338019
0.299032
)
;

boundaryField
{
    inlet
    {
        type            calculated;
        value           uniform -0;
    }
    outlet
    {
        type            calculated;
        value           uniform 0.299032;
    }
    fixedWalls
    {
        type            calculated;
        value           nonuniform List<scalar> 
300
(
-0
-0
-0
-0
-0
-0
0.194198
1.18395
1.92001
2.67783
3.52974
6.35522
7.24582
7.27985
7.12094
6.92884
6.71939
6.52296
6.33075
6.14646
5.96392
5.7901
5.62151
5.40571
5.17295
4.95533
4.75109
4.55885
4.37699
4.20488
4.03684
3.87739
3.7254
3.58002
3.44059
3.30657
3.17758
3.05326
2.93334
2.81756
2.7057
2.59756
2.49296
2.39173
2.29372
2.19878
2.10678
2.01758
1.93106
1.84709
1.76558
1.6864
1.60948
1.53467
1.46189
1.39103
1.32217
1.25479
1.18898
1.12467
1.06177
1.00021
0.939922
0.88081
0.822809
0.765849
0.709861
0.654776
0.600526
0.547034
0.494207
0.441918
0.389958
0.338019
0.299032
-0
-0
-0
-0
-0
-0
0.194198
1.18395
1.92001
2.67783
3.52974
6.35522
7.24582
7.27985
7.12094
6.92884
6.71939
6.52296
6.33075
6.14646
5.96392
5.7901
5.62151
5.40571
5.17295
4.95533
4.75109
4.55885
4.37699
4.20488
4.03684
3.87739
3.7254
3.58002
3.44059
3.30657
3.17758
3.05326
2.93334
2.81756
2.7057
2.59756
2.49296
2.39173
2.29372
2.19878
2.10678
2.01758
1.93106
1.84709
1.76558
1.6864
1.60948
1.53467
1.46189
1.39103
1.32217
1.25479
1.18898
1.12467
1.06177
1.00021
0.939922
0.88081
0.822809
0.765849
0.709861
0.654776
0.600526
0.547034
0.494207
0.441918
0.389958
0.338019
0.299032
-0
-0
-0
-0
-0
-0
0.194198
1.18395
1.92001
2.67783
3.52974
6.35522
7.24582
7.27985
7.12094
6.92884
6.71939
6.52296
6.33075
6.14646
5.96392
5.7901
5.62151
5.40571
5.17295
4.95533
4.75109
4.55885
4.37699
4.20488
4.03684
3.87739
3.7254
3.58002
3.44059
3.30657
3.17758
3.05326
2.93334
2.81756
2.7057
2.59756
2.49296
2.39173
2.29372
2.19878
2.10678
2.01758
1.93106
1.84709
1.76558
1.6864
1.60948
1.53467
1.46189
1.39103
1.32217
1.25479
1.18898
1.12467
1.06177
1.00021
0.939922
0.88081
0.822809
0.765849
0.709861
0.654776
0.600526
0.547034
0.494207
0.441918
0.389958
0.338019
0.299032
-0
-0
-0
-0
-0
-0
0.194198
1.18395
1.92001
2.67783
3.52974
6.35522
7.24582
7.27985
7.12094
6.92884
6.71939
6.52296
6.33075
6.14646
5.96392
5.7901
5.62151
5.40571
5.17295
4.95533
4.75109
4.55885
4.37699
4.20488
4.03684
3.87739
3.7254
3.58002
3.44059
3.30657
3.17758
3.05326
2.93334
2.81756
2.7057
2.59756
2.49296
2.39173
2.29372
2.19878
2.10678
2.01758
1.93106
1.84709
1.76558
1.6864
1.60948
1.53467
1.46189
1.39103
1.32217
1.25479
1.18898
1.12467
1.06177
1.00021
0.939922
0.88081
0.822809
0.765849
0.709861
0.654776
0.600526
0.547034
0.494207
0.441918
0.389958
0.338019
0.299032
)
;
    }
}


// ************************************************************************* //
