/*--------------------------------*- C++ -*----------------------------------*\
| =========                 |                                                 |
| \\      /  F ield         | OpenFOAM: The Open Source CFD Toolbox           |
|  \\    /   O peration     | Version:  2406                                  |
|   \\  /    A nd           | Website:  www.openfoam.com                      |
|    \\/     M anipulation  |                                                 |
\*---------------------------------------------------------------------------*/
FoamFile
{
    version     2.0;
    format      ascii;
    arch        "LSB;label=32;scalar=64";
    class       volTensorField;
    location    "16/fluidRegion";
    object      Kd.liquid.structure;
}
// * * * * * * * * * * * * * * * * * * * * * * * * * * * * * * * * * * * * * //

dimensions      [1 -3 -1 0 0 0 0];

internalField   nonuniform List<tensor> 
75
(
(418.491 0 0 0 418.491 0 0 0 418.491)
(418.491 0 0 0 418.491 0 0 0 418.491)
(418.491 0 0 0 418.491 0 0 0 418.491)
(418.491 0 0 0 418.491 0 0 0 418.491)
(418.491 0 0 0 418.491 0 0 0 418.491)
(417.905 0 0 0 417.905 0 0 0 417.905)
(438.223 0 0 0 438.223 0 0 0 438.223)
(531.205 0 0 0 531.205 0 0 0 531.205)
(671.962 0 0 0 671.962 0 0 0 671.962)
(842.41 0 0 0 842.41 0 0 0 842.41)
(1039.42 0 0 0 1039.42 0 0 0 1039.42)
(1318.36 0 0 0 1318.36 0 0 0 1318.36)
(1625.32 0 0 0 1625.32 0 0 0 1625.32)
(1902.71 0 0 0 1902.71 0 0 0 1902.71)
(2145.01 0 0 0 2145.01 0 0 0 2145.01)
(2360.26 0 0 0 2360.26 0 0 0 2360.26)
(2554.82 0 0 0 2554.82 0 0 0 2554.82)
(2733.33 0 0 0 2733.33 0 0 0 2733.33)
(2899.06 0 0 0 2899.06 0 0 0 2899.06)
(3054.27 0 0 0 3054.27 0 0 0 3054.27)
(3200.57 0 0 0 3200.57 0 0 0 3200.57)
(3339.12 0 0 0 3339.12 0 0 0 3339.12)
(3471.47 0 0 0 3471.47 0 0 0 3471.47)
(3637.56 0 0 0 3637.56 0 0 0 3637.56)
(3870.14 0 0 0 3870.14 0 0 0 3870.14)
(4095.69 0 0 0 4095.69 0 0 0 4095.69)
(4313.91 0 0 0 4313.91 0 0 0 4313.91)
(4525.42 0 0 0 4525.42 0 0 0 4525.42)
(4730.48 0 0 0 4730.48 0 0 0 4730.48)
(4929.39 0 0 0 4929.39 0 0 0 4929.39)
(5122.17 0 0 0 5122.17 0 0 0 5122.17)
(5309.03 0 0 0 5309.03 0 0 0 5309.03)
(5490.16 0 0 0 5490.16 0 0 0 5490.16)
(5665.7 0 0 0 5665.7 0 0 0 5665.7)
(5835.8 0 0 0 5835.8 0 0 0 5835.8)
(6000.58 0 0 0 6000.58 0 0 0 6000.58)
(6160.15 0 0 0 6160.15 0 0 0 6160.15)
(6314.6 0 0 0 6314.6 0 0 0 6314.6)
(6464.03 0 0 0 6464.03 0 0 0 6464.03)
(6608.55 0 0 0 6608.55 0 0 0 6608.55)
(6748.25 0 0 0 6748.25 0 0 0 6748.25)
(6883.2 0 0 0 6883.2 0 0 0 6883.2)
(7013.51 0 0 0 7013.51 0 0 0 7013.51)
(7139.26 0 0 0 7139.26 0 0 0 7139.26)
(7260.53 0 0 0 7260.53 0 0 0 7260.53)
(7377.4 0 0 0 7377.4 0 0 0 7377.4)
(7489.97 0 0 0 7489.97 0 0 0 7489.97)
(7598.32 0 0 0 7598.32 0 0 0 7598.32)
(7702.51 0 0 0 7702.51 0 0 0 7702.51)
(7802.64 0 0 0 7802.64 0 0 0 7802.64)
(7898.77 0 0 0 7898.77 0 0 0 7898.77)
(7990.97 0 0 0 7990.97 0 0 0 7990.97)
(8079.32 0 0 0 8079.32 0 0 0 8079.32)
(8163.87 0 0 0 8163.87 0 0 0 8163.87)
(8244.71 0 0 0 8244.71 0 0 0 8244.71)
(8321.88 0 0 0 8321.88 0 0 0 8321.88)
(8395.48 0 0 0 8395.48 0 0 0 8395.48)
(8465.56 0 0 0 8465.56 0 0 0 8465.56)
(8532.19 0 0 0 8532.19 0 0 0 8532.19)
(8595.43 0 0 0 8595.43 0 0 0 8595.43)
(8655.35 0 0 0 8655.35 0 0 0 8655.35)
(8711.97 0 0 0 8711.97 0 0 0 8711.97)
(8765.34 0 0 0 8765.34 0 0 0 8765.34)
(8815.45 0 0 0 8815.45 0 0 0 8815.45)
(8862.3 0 0 0 8862.3 0 0 0 8862.3)
(8905.87 0 0 0 8905.87 0 0 0 8905.87)
(8946.18 0 0 0 8946.18 0 0 0 8946.18)
(8983.25 0 0 0 8983.25 0 0 0 8983.25)
(9017.22 0 0 0 9017.22 0 0 0 9017.22)
(9048.21 0 0 0 9048.21 0 0 0 9048.21)
(9076.56 0 0 0 9076.56 0 0 0 9076.56)
(9102.23 0 0 0 9102.23 0 0 0 9102.23)
(9126.06 0 0 0 9126.06 0 0 0 9126.06)
(9146.07 0 0 0 9146.07 0 0 0 9146.07)
(9170.17 0 0 0 9170.17 0 0 0 9170.17)
)
;

boundaryField
{
    inlet
    {
        type            zeroGradient;
    }
    outlet
    {
        type            zeroGradient;
    }
    fixedWalls
    {
        type            zeroGradient;
    }
}


// ************************************************************************* //
