/*--------------------------------*- C++ -*----------------------------------*\
| =========                 |                                                 |
| \\      /  F ield         | OpenFOAM: The Open Source CFD Toolbox           |
|  \\    /   O peration     | Version:  2406                                  |
|   \\  /    A nd           | Website:  www.openfoam.com                      |
|    \\/     M anipulation  |                                                 |
\*---------------------------------------------------------------------------*/
FoamFile
{
    version     2.0;
    format      ascii;
    arch        "LSB;label=32;scalar=64";
    class       volTensorField;
    location    "16/fluidRegion";
    object      KdTotU;
}
// * * * * * * * * * * * * * * * * * * * * * * * * * * * * * * * * * * * * * //

dimensions      [1 -2 -2 0 0 0 0];

internalField   nonuniform List<tensor> 
75
(
(539.427 0 0 0 539.427 0 0 0 539.427)
(539.427 0 0 0 539.427 0 0 0 539.427)
(539.427 0 0 0 539.427 0 0 0 539.427)
(539.427 0 0 0 539.427 0 0 0 539.427)
(539.427 0 0 0 539.427 0 0 0 539.427)
(538.863 0 0 0 538.863 0 0 0 538.863)
(567.232 0 0 0 567.232 0 0 0 567.232)
(699.651 0 0 0 699.651 0 0 0 699.651)
(913.647 0 0 0 913.647 0 0 0 913.647)
(1191.05 0 0 0 1191.05 0 0 0 1191.05)
(1538.57 0 0 0 1538.57 0 0 0 1538.57)
(2068.25 0 0 0 2068.25 0 0 0 2068.25)
(2719.17 0 0 0 2719.17 0 0 0 2719.17)
(3373.61 0 0 0 3373.61 0 0 0 3373.61)
(3997.94 0 0 0 3997.94 0 0 0 3997.94)
(4590.37 0 0 0 4590.37 0 0 0 4590.37)
(5152.61 0 0 0 5152.61 0 0 0 5152.61)
(5687.01 0 0 0 5687.01 0 0 0 5687.01)
(6195.89 0 0 0 6195.89 0 0 0 6195.89)
(6681.06 0 0 0 6681.06 0 0 0 6681.06)
(7143.97 0 0 0 7143.97 0 0 0 7143.97)
(7585.95 0 0 0 7585.95 0 0 0 7585.95)
(8008.26 0 0 0 8008.26 0 0 0 8008.26)
(8497.16 0 0 0 8497.16 0 0 0 8497.16)
(9126.76 0 0 0 9126.76 0 0 0 9126.76)
(9728.12 0 0 0 9728.12 0 0 0 9728.12)
(10303.7 0 0 0 10303.7 0 0 0 10303.7)
(10856.3 0 0 0 10856.3 0 0 0 10856.3)
(11387.8 0 0 0 11387.8 0 0 0 11387.8)
(11899.7 0 0 0 11899.7 0 0 0 11899.7)
(12392.4 0 0 0 12392.4 0 0 0 12392.4)
(12866.8 0 0 0 12866.8 0 0 0 12866.8)
(13323.7 0 0 0 13323.7 0 0 0 13323.7)
(13763.7 0 0 0 13763.7 0 0 0 13763.7)
(14187.3 0 0 0 14187.3 0 0 0 14187.3)
(14595.2 0 0 0 14595.2 0 0 0 14595.2)
(14987.7 0 0 0 14987.7 0 0 0 14987.7)
(15365.2 0 0 0 15365.2 0 0 0 15365.2)
(15728.2 0 0 0 15728.2 0 0 0 15728.2)
(16077.1 0 0 0 16077.1 0 0 0 16077.1)
(16412.3 0 0 0 16412.3 0 0 0 16412.3)
(16734.1 0 0 0 16734.1 0 0 0 16734.1)
(17043 0 0 0 17043 0 0 0 17043)
(17339.3 0 0 0 17339.3 0 0 0 17339.3)
(17623.4 0 0 0 17623.4 0 0 0 17623.4)
(17895.7 0 0 0 17895.7 0 0 0 17895.7)
(18156.4 0 0 0 18156.4 0 0 0 18156.4)
(18405.9 0 0 0 18405.9 0 0 0 18405.9)
(18644.5 0 0 0 18644.5 0 0 0 18644.5)
(18872.6 0 0 0 18872.6 0 0 0 18872.6)
(19090.4 0 0 0 19090.4 0 0 0 19090.4)
(19298.1 0 0 0 19298.1 0 0 0 19298.1)
(19496.2 0 0 0 19496.2 0 0 0 19496.2)
(19684.7 0 0 0 19684.7 0 0 0 19684.7)
(19864.1 0 0 0 19864.1 0 0 0 19864.1)
(20034.6 0 0 0 20034.6 0 0 0 20034.6)
(20196.3 0 0 0 20196.3 0 0 0 20196.3)
(20349.6 0 0 0 20349.6 0 0 0 20349.6)
(20494.5 0 0 0 20494.5 0 0 0 20494.5)
(20631.2 0 0 0 20631.2 0 0 0 20631.2)
(20759.9 0 0 0 20759.9 0 0 0 20759.9)
(20880.8 0 0 0 20880.8 0 0 0 20880.8)
(20994 0 0 0 20994 0 0 0 20994)
(21099.7 0 0 0 21099.7 0 0 0 21099.7)
(21198.1 0 0 0 21198.1 0 0 0 21198.1)
(21289.2 0 0 0 21289.2 0 0 0 21289.2)
(21373.5 0 0 0 21373.5 0 0 0 21373.5)
(21450.9 0 0 0 21450.9 0 0 0 21450.9)
(21521.7 0 0 0 21521.7 0 0 0 21521.7)
(21585.8 0 0 0 21585.8 0 0 0 21585.8)
(21643.5 0 0 0 21643.5 0 0 0 21643.5)
(21694 0 0 0 21694 0 0 0 21694)
(21739 0 0 0 21739 0 0 0 21739)
(21771.5 0 0 0 21771.5 0 0 0 21771.5)
(21817.2 0 0 0 21817.2 0 0 0 21817.2)
)
;

boundaryField
{
    inlet
    {
        type            zeroGradient;
    }
    outlet
    {
        type            zeroGradient;
    }
    fixedWalls
    {
        type            zeroGradient;
    }
}


// ************************************************************************* //
