/*--------------------------------*- C++ -*----------------------------------*\
| =========                 |                                                 |
| \\      /  F ield         | OpenFOAM: The Open Source CFD Toolbox           |
|  \\    /   O peration     | Version:  2406                                  |
|   \\  /    A nd           | Website:  www.openfoam.com                      |
|    \\/     M anipulation  |                                                 |
\*---------------------------------------------------------------------------*/
FoamFile
{
    version     2.0;
    format      ascii;
    arch        "LSB;label=32;scalar=64";
    class       volScalarField;
    location    "16/fluidRegion";
    object      p;
}
// * * * * * * * * * * * * * * * * * * * * * * * * * * * * * * * * * * * * * //

dimensions      [1 -1 -2 0 0 0 0];

internalField   nonuniform List<scalar> 
75
(
7.24748e+06
7.24746e+06
7.24744e+06
7.24742e+06
7.2474e+06
7.24737e+06
7.24735e+06
7.24731e+06
7.24725e+06
7.24715e+06
7.24703e+06
7.24688e+06
7.24666e+06
7.24639e+06
7.2461e+06
7.24578e+06
7.24545e+06
7.24509e+06
7.24472e+06
7.24432e+06
7.24391e+06
7.24348e+06
7.24304e+06
7.24257e+06
7.24209e+06
7.24158e+06
7.24105e+06
7.24049e+06
7.23992e+06
7.23932e+06
7.2387e+06
7.23806e+06
7.23741e+06
7.23673e+06
7.23604e+06
7.23533e+06
7.2346e+06
7.23386e+06
7.23311e+06
7.23234e+06
7.23156e+06
7.23076e+06
7.22996e+06
7.22914e+06
7.22831e+06
7.22747e+06
7.22662e+06
7.22576e+06
7.22489e+06
7.22402e+06
7.22313e+06
7.22224e+06
7.22134e+06
7.22044e+06
7.21952e+06
7.2186e+06
7.21768e+06
7.21675e+06
7.21582e+06
7.21488e+06
7.21394e+06
7.21299e+06
7.21204e+06
7.21109e+06
7.21013e+06
7.20917e+06
7.20821e+06
7.20725e+06
7.20629e+06
7.20532e+06
7.20436e+06
7.20339e+06
7.20242e+06
7.20145e+06
7.20048e+06
)
;

boundaryField
{
    inlet
    {
        type            calculated;
        value           uniform 7.24749e+06;
    }
    outlet
    {
        type            calculated;
        value           uniform 7.2e+06;
    }
    fixedWalls
    {
        type            calculated;
        value           nonuniform List<scalar> 
300
(
7.24748e+06
7.24746e+06
7.24744e+06
7.24742e+06
7.2474e+06
7.24737e+06
7.24735e+06
7.24731e+06
7.24725e+06
7.24715e+06
7.24703e+06
7.24688e+06
7.24666e+06
7.24639e+06
7.2461e+06
7.24578e+06
7.24545e+06
7.24509e+06
7.24472e+06
7.24432e+06
7.24391e+06
7.24348e+06
7.24304e+06
7.24257e+06
7.24209e+06
7.24158e+06
7.24105e+06
7.24049e+06
7.23992e+06
7.23932e+06
7.2387e+06
7.23806e+06
7.23741e+06
7.23673e+06
7.23604e+06
7.23533e+06
7.2346e+06
7.23386e+06
7.23311e+06
7.23234e+06
7.23156e+06
7.23076e+06
7.22996e+06
7.22914e+06
7.22831e+06
7.22747e+06
7.22662e+06
7.22576e+06
7.22489e+06
7.22402e+06
7.22313e+06
7.22224e+06
7.22134e+06
7.22044e+06
7.21952e+06
7.2186e+06
7.21768e+06
7.21675e+06
7.21582e+06
7.21488e+06
7.21394e+06
7.21299e+06
7.21204e+06
7.21109e+06
7.21013e+06
7.20917e+06
7.20821e+06
7.20725e+06
7.20629e+06
7.20532e+06
7.20436e+06
7.20339e+06
7.20242e+06
7.20145e+06
7.20048e+06
7.24748e+06
7.24746e+06
7.24744e+06
7.24742e+06
7.2474e+06
7.24737e+06
7.24735e+06
7.24731e+06
7.24725e+06
7.24715e+06
7.24703e+06
7.24688e+06
7.24666e+06
7.24639e+06
7.2461e+06
7.24578e+06
7.24545e+06
7.24509e+06
7.24472e+06
7.24432e+06
7.24391e+06
7.24348e+06
7.24304e+06
7.24257e+06
7.24209e+06
7.24158e+06
7.24105e+06
7.24049e+06
7.23992e+06
7.23932e+06
7.2387e+06
7.23806e+06
7.23741e+06
7.23673e+06
7.23604e+06
7.23533e+06
7.2346e+06
7.23386e+06
7.23311e+06
7.23234e+06
7.23156e+06
7.23076e+06
7.22996e+06
7.22914e+06
7.22831e+06
7.22747e+06
7.22662e+06
7.22576e+06
7.22489e+06
7.22402e+06
7.22313e+06
7.22224e+06
7.22134e+06
7.22044e+06
7.21952e+06
7.2186e+06
7.21768e+06
7.21675e+06
7.21582e+06
7.21488e+06
7.21394e+06
7.21299e+06
7.21204e+06
7.21109e+06
7.21013e+06
7.20917e+06
7.20821e+06
7.20725e+06
7.20629e+06
7.20532e+06
7.20436e+06
7.20339e+06
7.20242e+06
7.20145e+06
7.20048e+06
7.24748e+06
7.24746e+06
7.24744e+06
7.24742e+06
7.2474e+06
7.24737e+06
7.24735e+06
7.24731e+06
7.24725e+06
7.24715e+06
7.24703e+06
7.24688e+06
7.24666e+06
7.24639e+06
7.2461e+06
7.24578e+06
7.24545e+06
7.24509e+06
7.24472e+06
7.24432e+06
7.24391e+06
7.24348e+06
7.24304e+06
7.24257e+06
7.24209e+06
7.24158e+06
7.24105e+06
7.24049e+06
7.23992e+06
7.23932e+06
7.2387e+06
7.23806e+06
7.23741e+06
7.23673e+06
7.23604e+06
7.23533e+06
7.2346e+06
7.23386e+06
7.23311e+06
7.23234e+06
7.23156e+06
7.23076e+06
7.22996e+06
7.22914e+06
7.22831e+06
7.22747e+06
7.22662e+06
7.22576e+06
7.22489e+06
7.22402e+06
7.22313e+06
7.22224e+06
7.22134e+06
7.22044e+06
7.21952e+06
7.2186e+06
7.21768e+06
7.21675e+06
7.21582e+06
7.21488e+06
7.21394e+06
7.21299e+06
7.21204e+06
7.21109e+06
7.21013e+06
7.20917e+06
7.20821e+06
7.20725e+06
7.20629e+06
7.20532e+06
7.20436e+06
7.20339e+06
7.20242e+06
7.20145e+06
7.20048e+06
7.24748e+06
7.24746e+06
7.24744e+06
7.24742e+06
7.2474e+06
7.24737e+06
7.24735e+06
7.24731e+06
7.24725e+06
7.24715e+06
7.24703e+06
7.24688e+06
7.24666e+06
7.24639e+06
7.2461e+06
7.24578e+06
7.24545e+06
7.24509e+06
7.24472e+06
7.24432e+06
7.24391e+06
7.24348e+06
7.24304e+06
7.24257e+06
7.24209e+06
7.24158e+06
7.24105e+06
7.24049e+06
7.23992e+06
7.23932e+06
7.2387e+06
7.23806e+06
7.23741e+06
7.23673e+06
7.23604e+06
7.23533e+06
7.2346e+06
7.23386e+06
7.23311e+06
7.23234e+06
7.23156e+06
7.23076e+06
7.22996e+06
7.22914e+06
7.22831e+06
7.22747e+06
7.22662e+06
7.22576e+06
7.22489e+06
7.22402e+06
7.22313e+06
7.22224e+06
7.22134e+06
7.22044e+06
7.21952e+06
7.2186e+06
7.21768e+06
7.21675e+06
7.21582e+06
7.21488e+06
7.21394e+06
7.21299e+06
7.21204e+06
7.21109e+06
7.21013e+06
7.20917e+06
7.20821e+06
7.20725e+06
7.20629e+06
7.20532e+06
7.20436e+06
7.20339e+06
7.20242e+06
7.20145e+06
7.20048e+06
)
;
    }
}


// ************************************************************************* //
