/*--------------------------------*- C++ -*----------------------------------*\
| =========                 |                                                 |
| \\      /  F ield         | OpenFOAM: The Open Source CFD Toolbox           |
|  \\    /   O peration     | Version:  2406                                  |
|   \\  /    A nd           | Website:  www.openfoam.com                      |
|    \\/     M anipulation  |                                                 |
\*---------------------------------------------------------------------------*/
FoamFile
{
    version     2.0;
    format      ascii;
    arch        "LSB;label=32;scalar=64";
    class       volScalarField;
    location    "0.6/fluidRegion";
    object      alphaRhoMagU.vapour;
}
// * * * * * * * * * * * * * * * * * * * * * * * * * * * * * * * * * * * * * //

dimensions      [1 -2 -1 0 0 0 0];

internalField   nonuniform List<scalar> 
70
(
0
0
0
0
0
0
0
0
0
0
0
0
0
0
0
0
0
0
0
0.276467
0.84073
1.64945
2.68214
3.9455
5.4249
7.11824
9.02328
11.1403
13.4703
16.0151
18.7763
21.7555
24.9536
28.3704
32.008
35.953
40.2697
44.8436
49.5977
54.4939
59.5109
64.6336
69.8508
75.1533
80.5334
85.9843
91.4994
97.0426
102.598
108.164
113.739
119.325
124.92
130.526
136.141
141.766
147.401
153.045
158.701
164.367
170.046
175.736
181.439
187.154
192.881
198.62
204.372
210.138
215.902
221.832
)
;

boundaryField
{
    inlet
    {
        type            calculated;
        value           uniform 0;
    }
    outlet
    {
        type            calculated;
        value           uniform 221.797;
    }
    fixedWalls
    {
        type            calculated;
        value           nonuniform List<scalar> 
280
(
0
0
0
0
0
0
0
0
0
0
0
0
0
0
0
0
0
0
0
0.276467
0.84073
1.64945
2.68214
3.9455
5.4249
7.11824
9.02328
11.1403
13.4703
16.0151
18.7763
21.7555
24.9536
28.3704
32.008
35.953
40.2697
44.8436
49.5977
54.4939
59.5109
64.6336
69.8508
75.1533
80.5334
85.9843
91.4994
97.0426
102.598
108.164
113.739
119.325
124.92
130.526
136.141
141.766
147.401
153.045
158.701
164.367
170.046
175.736
181.439
187.154
192.881
198.62
204.372
210.138
215.902
221.832
0
0
0
0
0
0
0
0
0
0
0
0
0
0
0
0
0
0
0
0.276467
0.84073
1.64945
2.68214
3.9455
5.4249
7.11824
9.02328
11.1403
13.4703
16.0151
18.7763
21.7555
24.9536
28.3704
32.008
35.953
40.2697
44.8436
49.5977
54.4939
59.5109
64.6336
69.8508
75.1533
80.5334
85.9843
91.4994
97.0426
102.598
108.164
113.739
119.325
124.92
130.526
136.141
141.766
147.401
153.045
158.701
164.367
170.046
175.736
181.439
187.154
192.881
198.62
204.372
210.138
215.902
221.832
0
0
0
0
0
0
0
0
0
0
0
0
0
0
0
0
0
0
0
0.276467
0.84073
1.64945
2.68214
3.9455
5.4249
7.11824
9.02328
11.1403
13.4703
16.0151
18.7763
21.7555
24.9536
28.3704
32.008
35.953
40.2697
44.8436
49.5977
54.4939
59.5109
64.6336
69.8508
75.1533
80.5334
85.9843
91.4994
97.0426
102.598
108.164
113.739
119.325
124.92
130.526
136.141
141.766
147.401
153.045
158.701
164.367
170.046
175.736
181.439
187.154
192.881
198.62
204.372
210.138
215.902
221.832
0
0
0
0
0
0
0
0
0
0
0
0
0
0
0
0
0
0
0
0.276467
0.84073
1.64945
2.68214
3.9455
5.4249
7.11824
9.02328
11.1403
13.4703
16.0151
18.7763
21.7555
24.9536
28.3704
32.008
35.953
40.2697
44.8436
49.5977
54.4939
59.5109
64.6336
69.8508
75.1533
80.5334
85.9843
91.4994
97.0426
102.598
108.164
113.739
119.325
124.92
130.526
136.141
141.766
147.401
153.045
158.701
164.367
170.046
175.736
181.439
187.154
192.881
198.62
204.372
210.138
215.902
221.832
)
;
    }
}


// ************************************************************************* //
