/*--------------------------------*- C++ -*----------------------------------*\
| =========                 |                                                 |
| \\      /  F ield         | OpenFOAM: The Open Source CFD Toolbox           |
|  \\    /   O peration     | Version:  2406                                  |
|   \\  /    A nd           | Website:  www.openfoam.com                      |
|    \\/     M anipulation  |                                                 |
\*---------------------------------------------------------------------------*/
FoamFile
{
    version     2.0;
    format      ascii;
    arch        "LSB;label=32;scalar=64";
    class       volScalarField;
    location    "0.6/fluidRegion";
    object      dgdt.vapour;
}
// * * * * * * * * * * * * * * * * * * * * * * * * * * * * * * * * * * * * * //

dimensions      [0 0 -1 0 0 0 0];

internalField   nonuniform List<scalar> 
70
(
-0
-0
-0
-0
-4.09506e-33
-5.05309e-32
-2.38531e-31
-7.1489e-31
-1.58802e-30
-2.93071e-30
-4.92106e-30
-6.59849e-30
-6.4881e-30
-2.44796e-30
-1.99022e-30
-2.40039e-30
-2.81991e-30
-3.24077e-30
-1.97267e-27
0.253913
0.485986
0.703745
0.908801
1.10359
1.29289
1.47921
1.66452
1.85016
2.03695
2.22531
2.41529
2.60661
2.7987
2.99075
3.18174
3.4651
3.80467
4.00675
4.15513
4.27562
4.37865
4.46933
4.55049
4.6239
4.69077
4.75196
4.80817
4.82494
4.8345
4.84415
4.85391
4.86379
4.8738
4.88393
4.89419
4.90457
4.91505
4.92564
4.93716
4.94977
4.96263
4.97572
4.98902
5.00251
5.01617
5.02999
5.04395
5.05804
5.07225
5.11672
)
;

boundaryField
{
    inlet
    {
        type            calculated;
        value           uniform -0;
    }
    outlet
    {
        type            calculated;
        value           uniform 5.11672;
    }
    fixedWalls
    {
        type            calculated;
        value           nonuniform List<scalar> 
280
(
-0
-0
-0
-0
-4.09506e-33
-5.05309e-32
-2.38531e-31
-7.1489e-31
-1.58802e-30
-2.93071e-30
-4.92106e-30
-6.59849e-30
-6.4881e-30
-2.44796e-30
-1.99022e-30
-2.40039e-30
-2.81991e-30
-3.24077e-30
-1.97267e-27
0.253913
0.485986
0.703745
0.908801
1.10359
1.29289
1.47921
1.66452
1.85016
2.03695
2.22531
2.41529
2.60661
2.7987
2.99075
3.18174
3.4651
3.80467
4.00675
4.15513
4.27562
4.37865
4.46933
4.55049
4.6239
4.69077
4.75196
4.80817
4.82494
4.8345
4.84415
4.85391
4.86379
4.8738
4.88393
4.89419
4.90457
4.91505
4.92564
4.93716
4.94977
4.96263
4.97572
4.98902
5.00251
5.01617
5.02999
5.04395
5.05804
5.07225
5.11672
-0
-0
-0
-0
-4.09506e-33
-5.05309e-32
-2.38531e-31
-7.1489e-31
-1.58802e-30
-2.93071e-30
-4.92106e-30
-6.59849e-30
-6.4881e-30
-2.44796e-30
-1.99022e-30
-2.40039e-30
-2.81991e-30
-3.24077e-30
-1.97267e-27
0.253913
0.485986
0.703745
0.908801
1.10359
1.29289
1.47921
1.66452
1.85016
2.03695
2.22531
2.41529
2.60661
2.7987
2.99075
3.18174
3.4651
3.80467
4.00675
4.15513
4.27562
4.37865
4.46933
4.55049
4.6239
4.69077
4.75196
4.80817
4.82494
4.8345
4.84415
4.85391
4.86379
4.8738
4.88393
4.89419
4.90457
4.91505
4.92564
4.93716
4.94977
4.96263
4.97572
4.98902
5.00251
5.01617
5.02999
5.04395
5.05804
5.07225
5.11672
-0
-0
-0
-0
-4.09506e-33
-5.05309e-32
-2.38531e-31
-7.1489e-31
-1.58802e-30
-2.93071e-30
-4.92106e-30
-6.59849e-30
-6.4881e-30
-2.44796e-30
-1.99022e-30
-2.40039e-30
-2.81991e-30
-3.24077e-30
-1.97267e-27
0.253913
0.485986
0.703745
0.908801
1.10359
1.29289
1.47921
1.66452
1.85016
2.03695
2.22531
2.41529
2.60661
2.7987
2.99075
3.18174
3.4651
3.80467
4.00675
4.15513
4.27562
4.37865
4.46933
4.55049
4.6239
4.69077
4.75196
4.80817
4.82494
4.8345
4.84415
4.85391
4.86379
4.8738
4.88393
4.89419
4.90457
4.91505
4.92564
4.93716
4.94977
4.96263
4.97572
4.98902
5.00251
5.01617
5.02999
5.04395
5.05804
5.07225
5.11672
-0
-0
-0
-0
-4.09506e-33
-5.05309e-32
-2.38531e-31
-7.1489e-31
-1.58802e-30
-2.93071e-30
-4.92106e-30
-6.59849e-30
-6.4881e-30
-2.44796e-30
-1.99022e-30
-2.40039e-30
-2.81991e-30
-3.24077e-30
-1.97267e-27
0.253913
0.485986
0.703745
0.908801
1.10359
1.29289
1.47921
1.66452
1.85016
2.03695
2.22531
2.41529
2.60661
2.7987
2.99075
3.18174
3.4651
3.80467
4.00675
4.15513
4.27562
4.37865
4.46933
4.55049
4.6239
4.69077
4.75196
4.80817
4.82494
4.8345
4.84415
4.85391
4.86379
4.8738
4.88393
4.89419
4.90457
4.91505
4.92564
4.93716
4.94977
4.96263
4.97572
4.98902
5.00251
5.01617
5.02999
5.04395
5.05804
5.07225
5.11672
)
;
    }
}


// ************************************************************************* //
