/*--------------------------------*- C++ -*----------------------------------*\
| =========                 |                                                 |
| \\      /  F ield         | OpenFOAM: The Open Source CFD Toolbox           |
|  \\    /   O peration     | Version:  2406                                  |
|   \\  /    A nd           | Website:  www.openfoam.com                      |
|    \\/     M anipulation  |                                                 |
\*---------------------------------------------------------------------------*/
FoamFile
{
    version     2.0;
    format      ascii;
    arch        "LSB;label=32;scalar=64";
    class       volTensorField;
    location    "0.6/fluidRegion";
    object      Kd.liquid.structure;
}
// * * * * * * * * * * * * * * * * * * * * * * * * * * * * * * * * * * * * * //

dimensions      [1 -3 -1 0 0 0 0];

internalField   nonuniform List<tensor> 
70
(
(1133.75 0 0 0 1133.75 0 0 0 1133.75)
(1132.6 0 0 0 1132.6 0 0 0 1132.6)
(1131.44 0 0 0 1131.44 0 0 0 1131.44)
(1130.28 0 0 0 1130.28 0 0 0 1130.28)
(1129.11 0 0 0 1129.11 0 0 0 1129.11)
(1127.94 0 0 0 1127.94 0 0 0 1127.94)
(1126.77 0 0 0 1126.77 0 0 0 1126.77)
(1125.59 0 0 0 1125.59 0 0 0 1125.59)
(1124.41 0 0 0 1124.41 0 0 0 1124.41)
(1123.22 0 0 0 1123.22 0 0 0 1123.22)
(1122.03 0 0 0 1122.03 0 0 0 1122.03)
(1120.84 0 0 0 1120.84 0 0 0 1120.84)
(1119.64 0 0 0 1119.64 0 0 0 1119.64)
(1118.44 0 0 0 1118.44 0 0 0 1118.44)
(1117.23 0 0 0 1117.23 0 0 0 1117.23)
(1116.02 0 0 0 1116.02 0 0 0 1116.02)
(1114.81 0 0 0 1114.81 0 0 0 1114.81)
(1113.59 0 0 0 1113.59 0 0 0 1113.59)
(1112.36 0 0 0 1112.36 0 0 0 1112.36)
(1149.43 0 0 0 1149.43 0 0 0 1149.43)
(1213.97 0 0 0 1213.97 0 0 0 1213.97)
(1298.15 0 0 0 1298.15 0 0 0 1298.15)
(1398.41 0 0 0 1398.41 0 0 0 1398.41)
(1514.02 0 0 0 1514.02 0 0 0 1514.02)
(1642.26 0 0 0 1642.26 0 0 0 1642.26)
(1781.81 0 0 0 1781.81 0 0 0 1781.81)
(1931.43 0 0 0 1931.43 0 0 0 1931.43)
(2090.14 0 0 0 2090.14 0 0 0 2090.14)
(2257.09 0 0 0 2257.09 0 0 0 2257.09)
(2431.51 0 0 0 2431.51 0 0 0 2431.51)
(2612.69 0 0 0 2612.69 0 0 0 2612.69)
(2799.95 0 0 0 2799.95 0 0 0 2799.95)
(2992.62 0 0 0 2992.62 0 0 0 2992.62)
(3190.04 0 0 0 3190.04 0 0 0 3190.04)
(3391.64 0 0 0 3391.64 0 0 0 3391.64)
(3601.31 0 0 0 3601.31 0 0 0 3601.31)
(3821.63 0 0 0 3821.63 0 0 0 3821.63)
(4046.13 0 0 0 4046.13 0 0 0 4046.13)
(4270.26 0 0 0 4270.26 0 0 0 4270.26)
(4492.16 0 0 0 4492.16 0 0 0 4492.16)
(4711.05 0 0 0 4711.05 0 0 0 4711.05)
(4926.54 0 0 0 4926.54 0 0 0 4926.54)
(5138.46 0 0 0 5138.46 0 0 0 5138.46)
(5346.77 0 0 0 5346.77 0 0 0 5346.77)
(5551.46 0 0 0 5551.46 0 0 0 5551.46)
(5752.6 0 0 0 5752.6 0 0 0 5752.6)
(5950.27 0 0 0 5950.27 0 0 0 5950.27)
(6143.59 0 0 0 6143.59 0 0 0 6143.59)
(6332.23 0 0 0 6332.23 0 0 0 6332.23)
(6516.44 0 0 0 6516.44 0 0 0 6516.44)
(6696.54 0 0 0 6696.54 0 0 0 6696.54)
(6872.82 0 0 0 6872.82 0 0 0 6872.82)
(7045.53 0 0 0 7045.53 0 0 0 7045.53)
(7214.93 0 0 0 7214.93 0 0 0 7214.93)
(7381.21 0 0 0 7381.21 0 0 0 7381.21)
(7544.57 0 0 0 7544.57 0 0 0 7544.57)
(7705.2 0 0 0 7705.2 0 0 0 7705.2)
(7863.26 0 0 0 7863.26 0 0 0 7863.26)
(8018.91 0 0 0 8018.91 0 0 0 8018.91)
(8172.33 0 0 0 8172.33 0 0 0 8172.33)
(8323.65 0 0 0 8323.65 0 0 0 8323.65)
(8473 0 0 0 8473 0 0 0 8473)
(8620.5 0 0 0 8620.5 0 0 0 8620.5)
(8766.25 0 0 0 8766.25 0 0 0 8766.25)
(8910.34 0 0 0 8910.34 0 0 0 8910.34)
(9052.88 0 0 0 9052.88 0 0 0 9052.88)
(9193.95 0 0 0 9193.95 0 0 0 9193.95)
(9333.59 0 0 0 9333.59 0 0 0 9333.59)
(9472.34 0 0 0 9472.34 0 0 0 9472.34)
(9606.18 0 0 0 9606.18 0 0 0 9606.18)
)
;

boundaryField
{
    inlet
    {
        type            zeroGradient;
    }
    outlet
    {
        type            zeroGradient;
    }
    fixedWalls
    {
        type            zeroGradient;
    }
}


// ************************************************************************* //
