/*--------------------------------*- C++ -*----------------------------------*\
| =========                 |                                                 |
| \\      /  F ield         | OpenFOAM: The Open Source CFD Toolbox           |
|  \\    /   O peration     | Version:  2406                                  |
|   \\  /    A nd           | Website:  www.openfoam.com                      |
|    \\/     M anipulation  |                                                 |
\*---------------------------------------------------------------------------*/
FoamFile
{
    version     2.0;
    format      ascii;
    arch        "LSB;label=32;scalar=64";
    class       volTensorField;
    location    "0.6/fluidRegion";
    object      KdTotU;
}
// * * * * * * * * * * * * * * * * * * * * * * * * * * * * * * * * * * * * * //

dimensions      [1 -2 -2 0 0 0 0];

internalField   nonuniform List<tensor> 
70
(
(5072.45 0 0 0 5072.45 0 0 0 5072.45)
(5083.11 0 0 0 5083.11 0 0 0 5083.11)
(5093.89 0 0 0 5093.89 0 0 0 5093.89)
(5104.81 0 0 0 5104.81 0 0 0 5104.81)
(5115.85 0 0 0 5115.85 0 0 0 5115.85)
(5127.01 0 0 0 5127.01 0 0 0 5127.01)
(5138.28 0 0 0 5138.28 0 0 0 5138.28)
(5149.67 0 0 0 5149.67 0 0 0 5149.67)
(5161.17 0 0 0 5161.17 0 0 0 5161.17)
(5172.77 0 0 0 5172.77 0 0 0 5172.77)
(5184.47 0 0 0 5184.47 0 0 0 5184.47)
(5196.27 0 0 0 5196.27 0 0 0 5196.27)
(5208.16 0 0 0 5208.16 0 0 0 5208.16)
(5220.15 0 0 0 5220.15 0 0 0 5220.15)
(5232.21 0 0 0 5232.21 0 0 0 5232.21)
(5244.36 0 0 0 5244.36 0 0 0 5244.36)
(5256.58 0 0 0 5256.58 0 0 0 5256.58)
(5268.88 0 0 0 5268.88 0 0 0 5268.88)
(5281.24 0 0 0 5281.24 0 0 0 5281.24)
(5481.58 0 0 0 5481.58 0 0 0 5481.58)
(5825.7 0 0 0 5825.7 0 0 0 5825.7)
(6278.05 0 0 0 6278.05 0 0 0 6278.05)
(6823.77 0 0 0 6823.77 0 0 0 6823.77)
(7461.91 0 0 0 7461.91 0 0 0 7461.91)
(8182.34 0 0 0 8182.34 0 0 0 8182.34)
(8981.59 0 0 0 8981.59 0 0 0 8981.59)
(9856.53 0 0 0 9856.53 0 0 0 9856.53)
(10805.3 0 0 0 10805.3 0 0 0 10805.3)
(11826.6 0 0 0 11826.6 0 0 0 11826.6)
(12919.1 0 0 0 12919.1 0 0 0 12919.1)
(14082 0 0 0 14082 0 0 0 14082)
(15314.1 0 0 0 15314.1 0 0 0 15314.1)
(16613.9 0 0 0 16613.9 0 0 0 16613.9)
(17979.8 0 0 0 17979.8 0 0 0 17979.8)
(19410.4 0 0 0 19410.4 0 0 0 19410.4)
(20933.3 0 0 0 20933.3 0 0 0 20933.3)
(22571 0 0 0 22571 0 0 0 22571)
(24284.7 0 0 0 24284.7 0 0 0 24284.7)
(26040.9 0 0 0 26040.9 0 0 0 26040.9)
(27824.3 0 0 0 27824.3 0 0 0 27824.3)
(29626.5 0 0 0 29626.5 0 0 0 29626.5)
(31441.8 0 0 0 31441.8 0 0 0 31441.8)
(33266.2 0 0 0 33266.2 0 0 0 33266.2)
(35096.5 0 0 0 35096.5 0 0 0 35096.5)
(36929.9 0 0 0 36929.9 0 0 0 36929.9)
(38764.3 0 0 0 38764.3 0 0 0 38764.3)
(40597.5 0 0 0 40597.5 0 0 0 40597.5)
(42419.8 0 0 0 42419.8 0 0 0 42419.8)
(44225 0 0 0 44225 0 0 0 44225)
(46012.7 0 0 0 46012.7 0 0 0 46012.7)
(47783.4 0 0 0 47783.4 0 0 0 47783.4)
(49537.5 0 0 0 49537.5 0 0 0 49537.5)
(51275.5 0 0 0 51275.5 0 0 0 51275.5)
(52997.6 0 0 0 52997.6 0 0 0 52997.6)
(54704.3 0 0 0 54704.3 0 0 0 54704.3)
(56395.7 0 0 0 56395.7 0 0 0 56395.7)
(58072.3 0 0 0 58072.3 0 0 0 58072.3)
(59734.1 0 0 0 59734.1 0 0 0 59734.1)
(61381.5 0 0 0 61381.5 0 0 0 61381.5)
(63015.1 0 0 0 63015.1 0 0 0 63015.1)
(64635.2 0 0 0 64635.2 0 0 0 64635.2)
(66241.8 0 0 0 66241.8 0 0 0 66241.8)
(67835.2 0 0 0 67835.2 0 0 0 67835.2)
(69415.6 0 0 0 69415.6 0 0 0 69415.6)
(70982.9 0 0 0 70982.9 0 0 0 70982.9)
(72537.4 0 0 0 72537.4 0 0 0 72537.4)
(74079.2 0 0 0 74079.2 0 0 0 74079.2)
(75608.2 0 0 0 75608.2 0 0 0 75608.2)
(77124.3 0 0 0 77124.3 0 0 0 77124.3)
(78636.1 0 0 0 78636.1 0 0 0 78636.1)
)
;

boundaryField
{
    inlet
    {
        type            zeroGradient;
    }
    outlet
    {
        type            zeroGradient;
    }
    fixedWalls
    {
        type            zeroGradient;
    }
}


// ************************************************************************* //
