/*--------------------------------*- C++ -*----------------------------------*\
| =========                 |                                                 |
| \\      /  F ield         | OpenFOAM: The Open Source CFD Toolbox           |
|  \\    /   O peration     | Version:  2406                                  |
|   \\  /    A nd           | Website:  www.openfoam.com                      |
|    \\/     M anipulation  |                                                 |
\*---------------------------------------------------------------------------*/
FoamFile
{
    version     2.0;
    format      ascii;
    arch        "LSB;label=32;scalar=64";
    class       volScalarField;
    location    "0.6/fluidRegion";
    object      p;
}
// * * * * * * * * * * * * * * * * * * * * * * * * * * * * * * * * * * * * * //

dimensions      [1 -1 -2 0 0 0 0];

internalField   nonuniform List<scalar> 
70
(
1.48411e+07
1.48408e+07
1.48405e+07
1.48402e+07
1.48399e+07
1.48396e+07
1.48393e+07
1.4839e+07
1.48387e+07
1.48384e+07
1.48381e+07
1.48378e+07
1.48375e+07
1.48373e+07
1.4837e+07
1.48367e+07
1.48364e+07
1.48361e+07
1.48358e+07
1.48355e+07
1.48352e+07
1.48348e+07
1.48344e+07
1.48339e+07
1.48334e+07
1.48328e+07
1.48321e+07
1.48314e+07
1.48306e+07
1.48298e+07
1.48288e+07
1.48279e+07
1.48268e+07
1.48256e+07
1.48244e+07
1.4823e+07
1.48216e+07
1.48201e+07
1.48185e+07
1.48167e+07
1.48149e+07
1.4813e+07
1.48109e+07
1.48088e+07
1.48066e+07
1.48043e+07
1.48019e+07
1.47994e+07
1.47968e+07
1.47941e+07
1.47913e+07
1.47885e+07
1.47855e+07
1.47825e+07
1.47793e+07
1.47761e+07
1.47728e+07
1.47694e+07
1.47659e+07
1.47624e+07
1.47587e+07
1.4755e+07
1.47512e+07
1.47473e+07
1.47433e+07
1.47392e+07
1.4735e+07
1.47308e+07
1.47265e+07
1.47221e+07
)
;

boundaryField
{
    inlet
    {
        type            calculated;
        value           uniform 1.48412e+07;
    }
    outlet
    {
        type            calculated;
        value           uniform 1.47198e+07;
    }
    fixedWalls
    {
        type            calculated;
        value           nonuniform List<scalar> 
280
(
1.48411e+07
1.48408e+07
1.48405e+07
1.48402e+07
1.48399e+07
1.48396e+07
1.48393e+07
1.4839e+07
1.48387e+07
1.48384e+07
1.48381e+07
1.48378e+07
1.48375e+07
1.48373e+07
1.4837e+07
1.48367e+07
1.48364e+07
1.48361e+07
1.48358e+07
1.48355e+07
1.48352e+07
1.48348e+07
1.48344e+07
1.48339e+07
1.48334e+07
1.48328e+07
1.48321e+07
1.48314e+07
1.48306e+07
1.48298e+07
1.48288e+07
1.48279e+07
1.48268e+07
1.48256e+07
1.48244e+07
1.4823e+07
1.48216e+07
1.48201e+07
1.48185e+07
1.48167e+07
1.48149e+07
1.4813e+07
1.48109e+07
1.48088e+07
1.48066e+07
1.48043e+07
1.48019e+07
1.47994e+07
1.47968e+07
1.47941e+07
1.47913e+07
1.47885e+07
1.47855e+07
1.47825e+07
1.47793e+07
1.47761e+07
1.47728e+07
1.47694e+07
1.47659e+07
1.47624e+07
1.47587e+07
1.4755e+07
1.47512e+07
1.47473e+07
1.47433e+07
1.47392e+07
1.4735e+07
1.47308e+07
1.47265e+07
1.47221e+07
1.48411e+07
1.48408e+07
1.48405e+07
1.48402e+07
1.48399e+07
1.48396e+07
1.48393e+07
1.4839e+07
1.48387e+07
1.48384e+07
1.48381e+07
1.48378e+07
1.48375e+07
1.48373e+07
1.4837e+07
1.48367e+07
1.48364e+07
1.48361e+07
1.48358e+07
1.48355e+07
1.48352e+07
1.48348e+07
1.48344e+07
1.48339e+07
1.48334e+07
1.48328e+07
1.48321e+07
1.48314e+07
1.48306e+07
1.48298e+07
1.48288e+07
1.48279e+07
1.48268e+07
1.48256e+07
1.48244e+07
1.4823e+07
1.48216e+07
1.48201e+07
1.48185e+07
1.48167e+07
1.48149e+07
1.4813e+07
1.48109e+07
1.48088e+07
1.48066e+07
1.48043e+07
1.48019e+07
1.47994e+07
1.47968e+07
1.47941e+07
1.47913e+07
1.47885e+07
1.47855e+07
1.47825e+07
1.47793e+07
1.47761e+07
1.47728e+07
1.47694e+07
1.47659e+07
1.47624e+07
1.47587e+07
1.4755e+07
1.47512e+07
1.47473e+07
1.47433e+07
1.47392e+07
1.4735e+07
1.47308e+07
1.47265e+07
1.47221e+07
1.48411e+07
1.48408e+07
1.48405e+07
1.48402e+07
1.48399e+07
1.48396e+07
1.48393e+07
1.4839e+07
1.48387e+07
1.48384e+07
1.48381e+07
1.48378e+07
1.48375e+07
1.48373e+07
1.4837e+07
1.48367e+07
1.48364e+07
1.48361e+07
1.48358e+07
1.48355e+07
1.48352e+07
1.48348e+07
1.48344e+07
1.48339e+07
1.48334e+07
1.48328e+07
1.48321e+07
1.48314e+07
1.48306e+07
1.48298e+07
1.48288e+07
1.48279e+07
1.48268e+07
1.48256e+07
1.48244e+07
1.4823e+07
1.48216e+07
1.48201e+07
1.48185e+07
1.48167e+07
1.48149e+07
1.4813e+07
1.48109e+07
1.48088e+07
1.48066e+07
1.48043e+07
1.48019e+07
1.47994e+07
1.47968e+07
1.47941e+07
1.47913e+07
1.47885e+07
1.47855e+07
1.47825e+07
1.47793e+07
1.47761e+07
1.47728e+07
1.47694e+07
1.47659e+07
1.47624e+07
1.47587e+07
1.4755e+07
1.47512e+07
1.47473e+07
1.47433e+07
1.47392e+07
1.4735e+07
1.47308e+07
1.47265e+07
1.47221e+07
1.48411e+07
1.48408e+07
1.48405e+07
1.48402e+07
1.48399e+07
1.48396e+07
1.48393e+07
1.4839e+07
1.48387e+07
1.48384e+07
1.48381e+07
1.48378e+07
1.48375e+07
1.48373e+07
1.4837e+07
1.48367e+07
1.48364e+07
1.48361e+07
1.48358e+07
1.48355e+07
1.48352e+07
1.48348e+07
1.48344e+07
1.48339e+07
1.48334e+07
1.48328e+07
1.48321e+07
1.48314e+07
1.48306e+07
1.48298e+07
1.48288e+07
1.48279e+07
1.48268e+07
1.48256e+07
1.48244e+07
1.4823e+07
1.48216e+07
1.48201e+07
1.48185e+07
1.48167e+07
1.48149e+07
1.4813e+07
1.48109e+07
1.48088e+07
1.48066e+07
1.48043e+07
1.48019e+07
1.47994e+07
1.47968e+07
1.47941e+07
1.47913e+07
1.47885e+07
1.47855e+07
1.47825e+07
1.47793e+07
1.47761e+07
1.47728e+07
1.47694e+07
1.47659e+07
1.47624e+07
1.47587e+07
1.4755e+07
1.47512e+07
1.47473e+07
1.47433e+07
1.47392e+07
1.4735e+07
1.47308e+07
1.47265e+07
1.47221e+07
)
;
    }
}


// ************************************************************************* //
