/*--------------------------------*- C++ -*----------------------------------*\
| =========                 |                                                 |
| \\      /  F ield         | OpenFOAM: The Open Source CFD Toolbox           |
|  \\    /   O peration     | Version:  2406                                  |
|   \\  /    A nd           | Website:  www.openfoam.com                      |
|    \\/     M anipulation  |                                                 |
\*---------------------------------------------------------------------------*/
FoamFile
{
    version     2.0;
    format      ascii;
    arch        "LSB;label=32;scalar=64";
    class       volScalarField;
    location    "30/fluidRegion";
    object      alphaRhoMagU.vapour;
}
// * * * * * * * * * * * * * * * * * * * * * * * * * * * * * * * * * * * * * //

dimensions      [1 -2 -1 0 0 0 0];

internalField   nonuniform List<scalar> 
70
(
9.23046
10.1782
10.9573
11.7728
12.56
13.3445
14.1236
14.9018
15.6804
16.4606
17.2429
18.0278
18.8155
19.606
20.3995
21.1959
21.9951
22.7972
23.6021
24.4097
25.22
26.0329
26.8484
27.6665
28.4869
29.3098
30.1351
30.9626
31.7924
32.6244
33.4586
34.2948
35.1331
35.9737
36.8173
37.6641
38.5141
39.3672
40.2233
41.0823
41.9442
42.8089
43.6763
44.5463
45.4188
46.2939
47.1713
48.0511
48.9331
49.8172
50.7035
51.5918
52.482
53.3741
54.268
55.1642
56.0563
56.9346
57.8045
58.6695
59.5309
60.39
61.2473
62.1035
62.9589
63.8138
64.6683
65.5242
66.3719
67.2702
)
;

boundaryField
{
    inlet
    {
        type            calculated;
        value           uniform 9.0488;
    }
    outlet
    {
        type            calculated;
        value           uniform 67.2683;
    }
    fixedWalls
    {
        type            calculated;
        value           nonuniform List<scalar> 
280
(
9.23046
10.1782
10.9573
11.7728
12.56
13.3445
14.1236
14.9018
15.6804
16.4606
17.2429
18.0278
18.8155
19.606
20.3995
21.1959
21.9951
22.7972
23.6021
24.4097
25.22
26.0329
26.8484
27.6665
28.4869
29.3098
30.1351
30.9626
31.7924
32.6244
33.4586
34.2948
35.1331
35.9737
36.8173
37.6641
38.5141
39.3672
40.2233
41.0823
41.9442
42.8089
43.6763
44.5463
45.4188
46.2939
47.1713
48.0511
48.9331
49.8172
50.7035
51.5918
52.482
53.3741
54.268
55.1642
56.0563
56.9346
57.8045
58.6695
59.5309
60.39
61.2473
62.1035
62.9589
63.8138
64.6683
65.5242
66.3719
67.2702
9.23046
10.1782
10.9573
11.7728
12.56
13.3445
14.1236
14.9018
15.6804
16.4606
17.2429
18.0278
18.8155
19.606
20.3995
21.1959
21.9951
22.7972
23.6021
24.4097
25.22
26.0329
26.8484
27.6665
28.4869
29.3098
30.1351
30.9626
31.7924
32.6244
33.4586
34.2948
35.1331
35.9737
36.8173
37.6641
38.5141
39.3672
40.2233
41.0823
41.9442
42.8089
43.6763
44.5463
45.4188
46.2939
47.1713
48.0511
48.9331
49.8172
50.7035
51.5918
52.482
53.3741
54.268
55.1642
56.0563
56.9346
57.8045
58.6695
59.5309
60.39
61.2473
62.1035
62.9589
63.8138
64.6683
65.5242
66.3719
67.2702
9.23046
10.1782
10.9573
11.7728
12.56
13.3445
14.1236
14.9018
15.6804
16.4606
17.2429
18.0278
18.8155
19.606
20.3995
21.1959
21.9951
22.7972
23.6021
24.4097
25.22
26.0329
26.8484
27.6665
28.4869
29.3098
30.1351
30.9626
31.7924
32.6244
33.4586
34.2948
35.1331
35.9737
36.8173
37.6641
38.5141
39.3672
40.2233
41.0823
41.9442
42.8089
43.6763
44.5463
45.4188
46.2939
47.1713
48.0511
48.9331
49.8172
50.7035
51.5918
52.482
53.3741
54.268
55.1642
56.0563
56.9346
57.8045
58.6695
59.5309
60.39
61.2473
62.1035
62.9589
63.8138
64.6683
65.5242
66.3719
67.2702
9.23046
10.1782
10.9573
11.7728
12.56
13.3445
14.1236
14.9018
15.6804
16.4606
17.2429
18.0278
18.8155
19.606
20.3995
21.1959
21.9951
22.7972
23.6021
24.4097
25.22
26.0329
26.8484
27.6665
28.4869
29.3098
30.1351
30.9626
31.7924
32.6244
33.4586
34.2948
35.1331
35.9737
36.8173
37.6641
38.5141
39.3672
40.2233
41.0823
41.9442
42.8089
43.6763
44.5463
45.4188
46.2939
47.1713
48.0511
48.9331
49.8172
50.7035
51.5918
52.482
53.3741
54.268
55.1642
56.0563
56.9346
57.8045
58.6695
59.5309
60.39
61.2473
62.1035
62.9589
63.8138
64.6683
65.5242
66.3719
67.2702
)
;
    }
}


// ************************************************************************* //
