/*--------------------------------*- C++ -*----------------------------------*\
| =========                 |                                                 |
| \\      /  F ield         | OpenFOAM: The Open Source CFD Toolbox           |
|  \\    /   O peration     | Version:  2406                                  |
|   \\  /    A nd           | Website:  www.openfoam.com                      |
|    \\/     M anipulation  |                                                 |
\*---------------------------------------------------------------------------*/
FoamFile
{
    version     2.0;
    format      ascii;
    arch        "LSB;label=32;scalar=64";
    class       volScalarField;
    location    "30/fluidRegion";
    object      dgdt.vapour;
}
// * * * * * * * * * * * * * * * * * * * * * * * * * * * * * * * * * * * * * //

dimensions      [0 0 -1 0 0 0 0];

internalField   nonuniform List<scalar> 
70
(
1.4298
1.45003
1.46665
1.48053
1.49205
1.5019
1.5106
1.51851
1.52588
1.53286
1.53954
1.546
1.55226
1.55836
1.56431
1.57013
1.57582
1.58139
1.58684
1.59217
1.5974
1.60251
1.60752
1.61242
1.61722
1.62192
1.62651
1.63101
1.63541
1.63972
1.64393
1.64805
1.65207
1.65672
1.66328
1.66969
1.67595
1.68206
1.68801
1.69381
1.69946
1.70496
1.71031
1.71551
1.72055
1.72545
1.7302
1.73481
1.73927
1.74358
1.74776
1.75179
1.75568
1.75944
1.76307
1.76656
1.76991
1.74523
1.722
1.70865
1.70027
1.6948
1.69121
1.68892
1.68758
1.68694
1.68687
1.68718
1.68816
1.69135
)
;

boundaryField
{
    inlet
    {
        type            calculated;
        value           uniform 1.4298;
    }
    outlet
    {
        type            calculated;
        value           uniform 1.69135;
    }
    fixedWalls
    {
        type            calculated;
        value           nonuniform List<scalar> 
280
(
1.4298
1.45003
1.46665
1.48053
1.49205
1.5019
1.5106
1.51851
1.52588
1.53286
1.53954
1.546
1.55226
1.55836
1.56431
1.57013
1.57582
1.58139
1.58684
1.59217
1.5974
1.60251
1.60752
1.61242
1.61722
1.62192
1.62651
1.63101
1.63541
1.63972
1.64393
1.64805
1.65207
1.65672
1.66328
1.66969
1.67595
1.68206
1.68801
1.69381
1.69946
1.70496
1.71031
1.71551
1.72055
1.72545
1.7302
1.73481
1.73927
1.74358
1.74776
1.75179
1.75568
1.75944
1.76307
1.76656
1.76991
1.74523
1.722
1.70865
1.70027
1.6948
1.69121
1.68892
1.68758
1.68694
1.68687
1.68718
1.68816
1.69135
1.4298
1.45003
1.46665
1.48053
1.49205
1.5019
1.5106
1.51851
1.52588
1.53286
1.53954
1.546
1.55226
1.55836
1.56431
1.57013
1.57582
1.58139
1.58684
1.59217
1.5974
1.60251
1.60752
1.61242
1.61722
1.62192
1.62651
1.63101
1.63541
1.63972
1.64393
1.64805
1.65207
1.65672
1.66328
1.66969
1.67595
1.68206
1.68801
1.69381
1.69946
1.70496
1.71031
1.71551
1.72055
1.72545
1.7302
1.73481
1.73927
1.74358
1.74776
1.75179
1.75568
1.75944
1.76307
1.76656
1.76991
1.74523
1.722
1.70865
1.70027
1.6948
1.69121
1.68892
1.68758
1.68694
1.68687
1.68718
1.68816
1.69135
1.4298
1.45003
1.46665
1.48053
1.49205
1.5019
1.5106
1.51851
1.52588
1.53286
1.53954
1.546
1.55226
1.55836
1.56431
1.57013
1.57582
1.58139
1.58684
1.59217
1.5974
1.60251
1.60752
1.61242
1.61722
1.62192
1.62651
1.63101
1.63541
1.63972
1.64393
1.64805
1.65207
1.65672
1.66328
1.66969
1.67595
1.68206
1.68801
1.69381
1.69946
1.70496
1.71031
1.71551
1.72055
1.72545
1.7302
1.73481
1.73927
1.74358
1.74776
1.75179
1.75568
1.75944
1.76307
1.76656
1.76991
1.74523
1.722
1.70865
1.70027
1.6948
1.69121
1.68892
1.68758
1.68694
1.68687
1.68718
1.68816
1.69135
1.4298
1.45003
1.46665
1.48053
1.49205
1.5019
1.5106
1.51851
1.52588
1.53286
1.53954
1.546
1.55226
1.55836
1.56431
1.57013
1.57582
1.58139
1.58684
1.59217
1.5974
1.60251
1.60752
1.61242
1.61722
1.62192
1.62651
1.63101
1.63541
1.63972
1.64393
1.64805
1.65207
1.65672
1.66328
1.66969
1.67595
1.68206
1.68801
1.69381
1.69946
1.70496
1.71031
1.71551
1.72055
1.72545
1.7302
1.73481
1.73927
1.74358
1.74776
1.75179
1.75568
1.75944
1.76307
1.76656
1.76991
1.74523
1.722
1.70865
1.70027
1.6948
1.69121
1.68892
1.68758
1.68694
1.68687
1.68718
1.68816
1.69135
)
;
    }
}


// ************************************************************************* //
