/*--------------------------------*- C++ -*----------------------------------*\
| =========                 |                                                 |
| \\      /  F ield         | OpenFOAM: The Open Source CFD Toolbox           |
|  \\    /   O peration     | Version:  2406                                  |
|   \\  /    A nd           | Website:  www.openfoam.com                      |
|    \\/     M anipulation  |                                                 |
\*---------------------------------------------------------------------------*/
FoamFile
{
    version     2.0;
    format      ascii;
    arch        "LSB;label=32;scalar=64";
    class       volTensorField;
    location    "30/fluidRegion";
    object      Kd.liquid.structure;
}
// * * * * * * * * * * * * * * * * * * * * * * * * * * * * * * * * * * * * * //

dimensions      [1 -3 -1 0 0 0 0];

internalField   nonuniform List<tensor> 
70
(
(1273.35 0 0 0 1273.35 0 0 0 1273.35)
(1360.07 0 0 0 1360.07 0 0 0 1360.07)
(1427.49 0 0 0 1427.49 0 0 0 1427.49)
(1491.98 0 0 0 1491.98 0 0 0 1491.98)
(1550.27 0 0 0 1550.27 0 0 0 1550.27)
(1605.27 0 0 0 1605.27 0 0 0 1605.27)
(1657.55 0 0 0 1657.55 0 0 0 1657.55)
(1707.94 0 0 0 1707.94 0 0 0 1707.94)
(1756.86 0 0 0 1756.86 0 0 0 1756.86)
(1804.64 0 0 0 1804.64 0 0 0 1804.64)
(1851.46 0 0 0 1851.46 0 0 0 1851.46)
(1897.49 0 0 0 1897.49 0 0 0 1897.49)
(1942.8 0 0 0 1942.8 0 0 0 1942.8)
(1987.48 0 0 0 1987.48 0 0 0 1987.48)
(2031.58 0 0 0 2031.58 0 0 0 2031.58)
(2075.15 0 0 0 2075.15 0 0 0 2075.15)
(2118.21 0 0 0 2118.21 0 0 0 2118.21)
(2160.8 0 0 0 2160.8 0 0 0 2160.8)
(2202.94 0 0 0 2202.94 0 0 0 2202.94)
(2244.65 0 0 0 2244.65 0 0 0 2244.65)
(2285.95 0 0 0 2285.95 0 0 0 2285.95)
(2326.87 0 0 0 2326.87 0 0 0 2326.87)
(2367.42 0 0 0 2367.42 0 0 0 2367.42)
(2407.61 0 0 0 2407.61 0 0 0 2407.61)
(2447.45 0 0 0 2447.45 0 0 0 2447.45)
(2486.97 0 0 0 2486.97 0 0 0 2486.97)
(2526.17 0 0 0 2526.17 0 0 0 2526.17)
(2565.06 0 0 0 2565.06 0 0 0 2565.06)
(2603.66 0 0 0 2603.66 0 0 0 2603.66)
(2641.98 0 0 0 2641.98 0 0 0 2641.98)
(2680.02 0 0 0 2680.02 0 0 0 2680.02)
(2717.8 0 0 0 2717.8 0 0 0 2717.8)
(2755.32 0 0 0 2755.32 0 0 0 2755.32)
(2792.6 0 0 0 2792.6 0 0 0 2792.6)
(2829.68 0 0 0 2829.68 0 0 0 2829.68)
(2866.58 0 0 0 2866.58 0 0 0 2866.58)
(2903.32 0 0 0 2903.32 0 0 0 2903.32)
(2939.88 0 0 0 2939.88 0 0 0 2939.88)
(2976.29 0 0 0 2976.29 0 0 0 2976.29)
(3012.54 0 0 0 3012.54 0 0 0 3012.54)
(3048.64 0 0 0 3048.64 0 0 0 3048.64)
(3084.59 0 0 0 3084.59 0 0 0 3084.59)
(3120.39 0 0 0 3120.39 0 0 0 3120.39)
(3156.05 0 0 0 3156.05 0 0 0 3156.05)
(3191.57 0 0 0 3191.57 0 0 0 3191.57)
(3226.95 0 0 0 3226.95 0 0 0 3226.95)
(3262.19 0 0 0 3262.19 0 0 0 3262.19)
(3297.31 0 0 0 3297.31 0 0 0 3297.31)
(3332.29 0 0 0 3332.29 0 0 0 3332.29)
(3367.15 0 0 0 3367.15 0 0 0 3367.15)
(3401.88 0 0 0 3401.88 0 0 0 3401.88)
(3436.49 0 0 0 3436.49 0 0 0 3436.49)
(3470.98 0 0 0 3470.98 0 0 0 3470.98)
(3505.34 0 0 0 3505.34 0 0 0 3505.34)
(3539.6 0 0 0 3539.6 0 0 0 3539.6)
(3573.71 0 0 0 3573.71 0 0 0 3573.71)
(3607.99 0 0 0 3607.99 0 0 0 3607.99)
(3661.42 0 0 0 3661.42 0 0 0 3661.42)
(3724.79 0 0 0 3724.79 0 0 0 3724.79)
(3787.67 0 0 0 3787.67 0 0 0 3787.67)
(3850.32 0 0 0 3850.32 0 0 0 3850.32)
(3912.94 0 0 0 3912.94 0 0 0 3912.94)
(3975.62 0 0 0 3975.62 0 0 0 3975.62)
(4038.45 0 0 0 4038.45 0 0 0 4038.45)
(4101.47 0 0 0 4101.47 0 0 0 4101.47)
(4164.71 0 0 0 4164.71 0 0 0 4164.71)
(4228.17 0 0 0 4228.17 0 0 0 4228.17)
(4292.15 0 0 0 4292.15 0 0 0 4292.15)
(4354.92 0 0 0 4354.92 0 0 0 4354.92)
(4426.89 0 0 0 4426.89 0 0 0 4426.89)
)
;

boundaryField
{
    inlet
    {
        type            zeroGradient;
    }
    outlet
    {
        type            zeroGradient;
    }
    fixedWalls
    {
        type            zeroGradient;
    }
}


// ************************************************************************* //
