/*--------------------------------*- C++ -*----------------------------------*\
| =========                 |                                                 |
| \\      /  F ield         | OpenFOAM: The Open Source CFD Toolbox           |
|  \\    /   O peration     | Version:  2406                                  |
|   \\  /    A nd           | Website:  www.openfoam.com                      |
|    \\/     M anipulation  |                                                 |
\*---------------------------------------------------------------------------*/
FoamFile
{
    version     2.0;
    format      ascii;
    arch        "LSB;label=32;scalar=64";
    class       volTensorField;
    location    "30/fluidRegion";
    object      KdTotU;
}
// * * * * * * * * * * * * * * * * * * * * * * * * * * * * * * * * * * * * * //

dimensions      [1 -2 -2 0 0 0 0];

internalField   nonuniform List<tensor> 
70
(
(2128.36 0 0 0 2128.36 0 0 0 2128.36)
(2257.12 0 0 0 2257.12 0 0 0 2257.12)
(2372.95 0 0 0 2372.95 0 0 0 2372.95)
(2491.24 0 0 0 2491.24 0 0 0 2491.24)
(2606.59 0 0 0 2606.59 0 0 0 2606.59)
(2721.05 0 0 0 2721.05 0 0 0 2721.05)
(2834.45 0 0 0 2834.45 0 0 0 2834.45)
(2947.2 0 0 0 2947.2 0 0 0 2947.2)
(3059.42 0 0 0 3059.42 0 0 0 3059.42)
(3171.24 0 0 0 3171.24 0 0 0 3171.24)
(3282.72 0 0 0 3282.72 0 0 0 3282.72)
(3393.91 0 0 0 3393.91 0 0 0 3393.91)
(3504.83 0 0 0 3504.83 0 0 0 3504.83)
(3615.5 0 0 0 3615.5 0 0 0 3615.5)
(3725.94 0 0 0 3725.94 0 0 0 3725.94)
(3836.15 0 0 0 3836.15 0 0 0 3836.15)
(3946.14 0 0 0 3946.14 0 0 0 3946.14)
(4055.91 0 0 0 4055.91 0 0 0 4055.91)
(4165.47 0 0 0 4165.47 0 0 0 4165.47)
(4274.8 0 0 0 4274.8 0 0 0 4274.8)
(4383.93 0 0 0 4383.93 0 0 0 4383.93)
(4492.84 0 0 0 4492.84 0 0 0 4492.84)
(4601.54 0 0 0 4601.54 0 0 0 4601.54)
(4710.02 0 0 0 4710.02 0 0 0 4710.02)
(4818.28 0 0 0 4818.28 0 0 0 4818.28)
(4926.32 0 0 0 4926.32 0 0 0 4926.32)
(5034.15 0 0 0 5034.15 0 0 0 5034.15)
(5141.76 0 0 0 5141.76 0 0 0 5141.76)
(5249.14 0 0 0 5249.14 0 0 0 5249.14)
(5356.3 0 0 0 5356.3 0 0 0 5356.3)
(5463.23 0 0 0 5463.23 0 0 0 5463.23)
(5569.93 0 0 0 5569.93 0 0 0 5569.93)
(5676.4 0 0 0 5676.4 0 0 0 5676.4)
(5782.66 0 0 0 5782.66 0 0 0 5782.66)
(5888.8 0 0 0 5888.8 0 0 0 5888.8)
(5994.87 0 0 0 5994.87 0 0 0 5994.87)
(6100.86 0 0 0 6100.86 0 0 0 6100.86)
(6206.76 0 0 0 6206.76 0 0 0 6206.76)
(6312.55 0 0 0 6312.55 0 0 0 6312.55)
(6418.24 0 0 0 6418.24 0 0 0 6418.24)
(6523.81 0 0 0 6523.81 0 0 0 6523.81)
(6629.26 0 0 0 6629.26 0 0 0 6629.26)
(6734.56 0 0 0 6734.56 0 0 0 6734.56)
(6839.72 0 0 0 6839.72 0 0 0 6839.72)
(6944.73 0 0 0 6944.73 0 0 0 6944.73)
(7049.57 0 0 0 7049.57 0 0 0 7049.57)
(7154.25 0 0 0 7154.25 0 0 0 7154.25)
(7258.74 0 0 0 7258.74 0 0 0 7258.74)
(7363.04 0 0 0 7363.04 0 0 0 7363.04)
(7467.14 0 0 0 7467.14 0 0 0 7467.14)
(7571.04 0 0 0 7571.04 0 0 0 7571.04)
(7674.72 0 0 0 7674.72 0 0 0 7674.72)
(7778.18 0 0 0 7778.18 0 0 0 7778.18)
(7881.41 0 0 0 7881.41 0 0 0 7881.41)
(7984.4 0 0 0 7984.4 0 0 0 7984.4)
(8087.15 0 0 0 8087.15 0 0 0 8087.15)
(8189.63 0 0 0 8189.63 0 0 0 8189.63)
(8333.14 0 0 0 8333.14 0 0 0 8333.14)
(8496.45 0 0 0 8496.45 0 0 0 8496.45)
(8656.91 0 0 0 8656.91 0 0 0 8656.91)
(8815.88 0 0 0 8815.88 0 0 0 8815.88)
(8974.21 0 0 0 8974.21 0 0 0 8974.21)
(9132.35 0 0 0 9132.35 0 0 0 9132.35)
(9290.59 0 0 0 9290.59 0 0 0 9290.59)
(9449.11 0 0 0 9449.11 0 0 0 9449.11)
(9608.03 0 0 0 9608.03 0 0 0 9608.03)
(9767.29 0 0 0 9767.29 0 0 0 9767.29)
(9927.79 0 0 0 9927.79 0 0 0 9927.79)
(10084.4 0 0 0 10084.4 0 0 0 10084.4)
(10268 0 0 0 10268 0 0 0 10268)
)
;

boundaryField
{
    inlet
    {
        type            zeroGradient;
    }
    outlet
    {
        type            zeroGradient;
    }
    fixedWalls
    {
        type            zeroGradient;
    }
}


// ************************************************************************* //
