/*--------------------------------*- C++ -*----------------------------------*\
| =========                 |                                                 |
| \\      /  F ield         | OpenFOAM: The Open Source CFD Toolbox           |
|  \\    /   O peration     | Version:  2406                                  |
|   \\  /    A nd           | Website:  www.openfoam.com                      |
|    \\/     M anipulation  |                                                 |
\*---------------------------------------------------------------------------*/
FoamFile
{
    version     2.0;
    format      ascii;
    arch        "LSB;label=32;scalar=64";
    class       volScalarField;
    location    "30/fluidRegion";
    object      p_rgh;
}
// * * * * * * * * * * * * * * * * * * * * * * * * * * * * * * * * * * * * * //

dimensions      [1 -1 -2 0 0 0 0];

internalField   nonuniform List<scalar> 
70
(
7.21662e+06
7.21656e+06
7.21647e+06
7.21637e+06
7.21627e+06
7.21615e+06
7.21603e+06
7.21591e+06
7.21578e+06
7.21565e+06
7.21551e+06
7.21537e+06
7.21522e+06
7.21507e+06
7.21492e+06
7.21476e+06
7.2146e+06
7.21443e+06
7.21426e+06
7.21409e+06
7.21391e+06
7.21373e+06
7.21354e+06
7.21335e+06
7.21316e+06
7.21296e+06
7.21276e+06
7.21255e+06
7.21234e+06
7.21213e+06
7.21191e+06
7.21169e+06
7.21147e+06
7.21124e+06
7.211e+06
7.21077e+06
7.21052e+06
7.21028e+06
7.21003e+06
7.20978e+06
7.20952e+06
7.20926e+06
7.20899e+06
7.20872e+06
7.20845e+06
7.20817e+06
7.20789e+06
7.20761e+06
7.20732e+06
7.20703e+06
7.20673e+06
7.20643e+06
7.20612e+06
7.20581e+06
7.2055e+06
7.20519e+06
7.20487e+06
7.20454e+06
7.20421e+06
7.20388e+06
7.20353e+06
7.20319e+06
7.20284e+06
7.20248e+06
7.20211e+06
7.20174e+06
7.20137e+06
7.20099e+06
7.2006e+06
7.2002e+06
)
;

boundaryField
{
    inlet
    {
        type            fixedFluxPressure;
        gradient        uniform 2051.12;
        value           uniform 7.21664e+06;
    }
    outlet
    {
        type            fixedValue;
        value           uniform 7.2e+06;
    }
    fixedWalls
    {
        type            fixedFluxPressure;
        gradient        nonuniform List<scalar> 
280
(
0
0
0
0
1.80895e-16
-7.16011e-18
-1.72243e-16
-1.81646e-16
6.73468e-18
1.73585e-16
0
-3.66437e-16
2.36836e-18
3.58937e-16
3.68067e-16
-5.88157e-18
1.1387e-17
-3.1312e-20
-3.53418e-16
0
0
0
0
0
-2.93976e-18
5.12146e-18
5.75262e-18
0
-2.81813e-18
-2.71386e-18
2.77843e-20
2.67718e-18
0
0
0
0
0
0
0
0
0
0
0
0
0
0
-3.70094e-16
1.27542e-20
3.65783e-16
0
0
0
0
0
0
0
0
0
0
0
0
0
0
0
0
0
0
0
0
0
0
0
0
0
-1.80895e-16
7.16011e-18
1.72243e-16
1.81646e-16
-6.73468e-18
-1.73585e-16
0
3.66437e-16
-2.36836e-18
-3.58937e-16
-3.68067e-16
5.88157e-18
-1.1387e-17
3.1312e-20
3.53418e-16
0
0
0
0
0
2.93976e-18
-5.12146e-18
-5.75262e-18
0
2.81813e-18
2.71386e-18
-2.77843e-20
-2.67718e-18
0
0
0
0
0
0
0
0
0
0
0
0
0
0
3.70094e-16
-1.27542e-20
-3.65783e-16
0
0
0
0
0
0
0
0
0
0
0
0
0
0
0
0
0
0
0
0
0
0
0
0
0
1.80895e-16
-7.16011e-18
-1.72243e-16
-1.81646e-16
6.73468e-18
1.73585e-16
0
-3.66437e-16
2.36836e-18
3.58937e-16
3.68067e-16
-5.88157e-18
1.1387e-17
-3.1312e-20
-3.53418e-16
0
0
0
0
0
-2.93976e-18
5.12146e-18
5.75262e-18
0
-2.81813e-18
-2.71386e-18
2.77843e-20
2.67718e-18
0
0
0
0
0
0
0
0
0
0
0
0
0
0
-3.70094e-16
1.27542e-20
3.65783e-16
0
0
0
0
0
0
0
0
0
0
0
0
0
0
0
0
0
0
0
0
0
0
0
0
0
-1.80895e-16
7.16011e-18
1.72243e-16
1.81646e-16
-6.73468e-18
-1.73585e-16
0
3.66437e-16
-2.36836e-18
-3.58937e-16
-3.68067e-16
5.88157e-18
-1.1387e-17
3.1312e-20
3.53418e-16
0
0
0
0
0
2.93976e-18
-5.12146e-18
-5.75262e-18
0
2.81813e-18
2.71386e-18
-2.77843e-20
-2.67718e-18
0
0
0
0
0
0
0
0
0
0
0
0
0
0
3.70094e-16
-1.27542e-20
-3.65783e-16
0
0
0
0
0
0
0
0
0
0
0
0
0
0
0
0
0
0
0
0
0
)
;
        value           nonuniform List<scalar> 
280
(
7.21662e+06
7.21656e+06
7.21647e+06
7.21637e+06
7.21627e+06
7.21615e+06
7.21603e+06
7.21591e+06
7.21578e+06
7.21565e+06
7.21551e+06
7.21537e+06
7.21522e+06
7.21507e+06
7.21492e+06
7.21476e+06
7.2146e+06
7.21443e+06
7.21426e+06
7.21409e+06
7.21391e+06
7.21373e+06
7.21354e+06
7.21335e+06
7.21316e+06
7.21296e+06
7.21276e+06
7.21255e+06
7.21234e+06
7.21213e+06
7.21191e+06
7.21169e+06
7.21147e+06
7.21124e+06
7.211e+06
7.21077e+06
7.21052e+06
7.21028e+06
7.21003e+06
7.20978e+06
7.20952e+06
7.20926e+06
7.20899e+06
7.20872e+06
7.20845e+06
7.20817e+06
7.20789e+06
7.20761e+06
7.20732e+06
7.20703e+06
7.20673e+06
7.20643e+06
7.20612e+06
7.20581e+06
7.2055e+06
7.20519e+06
7.20487e+06
7.20454e+06
7.20421e+06
7.20388e+06
7.20353e+06
7.20319e+06
7.20284e+06
7.20248e+06
7.20211e+06
7.20174e+06
7.20137e+06
7.20099e+06
7.2006e+06
7.2002e+06
7.21662e+06
7.21656e+06
7.21647e+06
7.21637e+06
7.21627e+06
7.21615e+06
7.21603e+06
7.21591e+06
7.21578e+06
7.21565e+06
7.21551e+06
7.21537e+06
7.21522e+06
7.21507e+06
7.21492e+06
7.21476e+06
7.2146e+06
7.21443e+06
7.21426e+06
7.21409e+06
7.21391e+06
7.21373e+06
7.21354e+06
7.21335e+06
7.21316e+06
7.21296e+06
7.21276e+06
7.21255e+06
7.21234e+06
7.21213e+06
7.21191e+06
7.21169e+06
7.21147e+06
7.21124e+06
7.211e+06
7.21077e+06
7.21052e+06
7.21028e+06
7.21003e+06
7.20978e+06
7.20952e+06
7.20926e+06
7.20899e+06
7.20872e+06
7.20845e+06
7.20817e+06
7.20789e+06
7.20761e+06
7.20732e+06
7.20703e+06
7.20673e+06
7.20643e+06
7.20612e+06
7.20581e+06
7.2055e+06
7.20519e+06
7.20487e+06
7.20454e+06
7.20421e+06
7.20388e+06
7.20353e+06
7.20319e+06
7.20284e+06
7.20248e+06
7.20211e+06
7.20174e+06
7.20137e+06
7.20099e+06
7.2006e+06
7.2002e+06
7.21662e+06
7.21656e+06
7.21647e+06
7.21637e+06
7.21627e+06
7.21615e+06
7.21603e+06
7.21591e+06
7.21578e+06
7.21565e+06
7.21551e+06
7.21537e+06
7.21522e+06
7.21507e+06
7.21492e+06
7.21476e+06
7.2146e+06
7.21443e+06
7.21426e+06
7.21409e+06
7.21391e+06
7.21373e+06
7.21354e+06
7.21335e+06
7.21316e+06
7.21296e+06
7.21276e+06
7.21255e+06
7.21234e+06
7.21213e+06
7.21191e+06
7.21169e+06
7.21147e+06
7.21124e+06
7.211e+06
7.21077e+06
7.21052e+06
7.21028e+06
7.21003e+06
7.20978e+06
7.20952e+06
7.20926e+06
7.20899e+06
7.20872e+06
7.20845e+06
7.20817e+06
7.20789e+06
7.20761e+06
7.20732e+06
7.20703e+06
7.20673e+06
7.20643e+06
7.20612e+06
7.20581e+06
7.2055e+06
7.20519e+06
7.20487e+06
7.20454e+06
7.20421e+06
7.20388e+06
7.20353e+06
7.20319e+06
7.20284e+06
7.20248e+06
7.20211e+06
7.20174e+06
7.20137e+06
7.20099e+06
7.2006e+06
7.2002e+06
7.21662e+06
7.21656e+06
7.21647e+06
7.21637e+06
7.21627e+06
7.21615e+06
7.21603e+06
7.21591e+06
7.21578e+06
7.21565e+06
7.21551e+06
7.21537e+06
7.21522e+06
7.21507e+06
7.21492e+06
7.21476e+06
7.2146e+06
7.21443e+06
7.21426e+06
7.21409e+06
7.21391e+06
7.21373e+06
7.21354e+06
7.21335e+06
7.21316e+06
7.21296e+06
7.21276e+06
7.21255e+06
7.21234e+06
7.21213e+06
7.21191e+06
7.21169e+06
7.21147e+06
7.21124e+06
7.211e+06
7.21077e+06
7.21052e+06
7.21028e+06
7.21003e+06
7.20978e+06
7.20952e+06
7.20926e+06
7.20899e+06
7.20872e+06
7.20845e+06
7.20817e+06
7.20789e+06
7.20761e+06
7.20732e+06
7.20703e+06
7.20673e+06
7.20643e+06
7.20612e+06
7.20581e+06
7.2055e+06
7.20519e+06
7.20487e+06
7.20454e+06
7.20421e+06
7.20388e+06
7.20353e+06
7.20319e+06
7.20284e+06
7.20248e+06
7.20211e+06
7.20174e+06
7.20137e+06
7.20099e+06
7.2006e+06
7.2002e+06
)
;
    }
}


// ************************************************************************* //
