/*--------------------------------*- C++ -*----------------------------------*\
| =========                 |                                                 |
| \\      /  F ield         | OpenFOAM: The Open Source CFD Toolbox           |
|  \\    /   O peration     | Version:  2406                                  |
|   \\  /    A nd           | Website:  www.openfoam.com                      |
|    \\/     M anipulation  |                                                 |
\*---------------------------------------------------------------------------*/
FoamFile
{
    version     2.0;
    format      ascii;
    arch        "LSB;label=32;scalar=64";
    class       volScalarField;
    location    "30/fluidRegion";
    object      alphaRhoMagU.vapour;
}
// * * * * * * * * * * * * * * * * * * * * * * * * * * * * * * * * * * * * * //

dimensions      [1 -2 -1 0 0 0 0];

internalField   nonuniform List<scalar> 
70
(
0
0
0.0489414
0.16673
0.327327
0.538021
0.80034
1.12174
1.51119
1.97989
2.54052
3.20685
3.99288
4.91174
5.97433
7.18761
8.5585
10.1573
11.895
13.7071
15.5666
17.4532
19.3546
21.2673
23.1906
25.1239
27.0668
29.0189
30.98
32.9498
34.9281
36.9148
38.9095
40.9126
42.9259
44.95
46.9848
49.0301
51.0856
53.1511
55.2263
57.3108
59.4064
61.4924
63.5469
65.5971
67.6459
69.6953
71.746
73.7985
75.8532
77.9106
79.971
82.0345
84.1014
86.1719
88.246
90.3238
92.4055
94.4909
96.5801
98.6732
100.77
102.871
104.975
107.084
109.192
111.321
113.391
115.69
)
;

boundaryField
{
    inlet
    {
        type            calculated;
        value           uniform 0;
    }
    outlet
    {
        type            calculated;
        value           uniform 115.682;
    }
    fixedWalls
    {
        type            calculated;
        value           nonuniform List<scalar> 
280
(
0
0
0.0489414
0.16673
0.327327
0.538021
0.80034
1.12174
1.51119
1.97989
2.54052
3.20685
3.99288
4.91174
5.97433
7.18761
8.5585
10.1573
11.895
13.7071
15.5666
17.4532
19.3546
21.2673
23.1906
25.1239
27.0668
29.0189
30.98
32.9498
34.9281
36.9148
38.9095
40.9126
42.9259
44.95
46.9848
49.0301
51.0856
53.1511
55.2263
57.3108
59.4064
61.4924
63.5469
65.5971
67.6459
69.6953
71.746
73.7985
75.8532
77.9106
79.971
82.0345
84.1014
86.1719
88.246
90.3238
92.4055
94.4909
96.5801
98.6732
100.77
102.871
104.975
107.084
109.192
111.321
113.391
115.69
0
0
0.0489414
0.16673
0.327327
0.538021
0.80034
1.12174
1.51119
1.97989
2.54052
3.20685
3.99288
4.91174
5.97433
7.18761
8.5585
10.1573
11.895
13.7071
15.5666
17.4532
19.3546
21.2673
23.1906
25.1239
27.0668
29.0189
30.98
32.9498
34.9281
36.9148
38.9095
40.9126
42.9259
44.95
46.9848
49.0301
51.0856
53.1511
55.2263
57.3108
59.4064
61.4924
63.5469
65.5971
67.6459
69.6953
71.746
73.7985
75.8532
77.9106
79.971
82.0345
84.1014
86.1719
88.246
90.3238
92.4055
94.4909
96.5801
98.6732
100.77
102.871
104.975
107.084
109.192
111.321
113.391
115.69
0
0
0.0489414
0.16673
0.327327
0.538021
0.80034
1.12174
1.51119
1.97989
2.54052
3.20685
3.99288
4.91174
5.97433
7.18761
8.5585
10.1573
11.895
13.7071
15.5666
17.4532
19.3546
21.2673
23.1906
25.1239
27.0668
29.0189
30.98
32.9498
34.9281
36.9148
38.9095
40.9126
42.9259
44.95
46.9848
49.0301
51.0856
53.1511
55.2263
57.3108
59.4064
61.4924
63.5469
65.5971
67.6459
69.6953
71.746
73.7985
75.8532
77.9106
79.971
82.0345
84.1014
86.1719
88.246
90.3238
92.4055
94.4909
96.5801
98.6732
100.77
102.871
104.975
107.084
109.192
111.321
113.391
115.69
0
0
0.0489414
0.16673
0.327327
0.538021
0.80034
1.12174
1.51119
1.97989
2.54052
3.20685
3.99288
4.91174
5.97433
7.18761
8.5585
10.1573
11.895
13.7071
15.5666
17.4532
19.3546
21.2673
23.1906
25.1239
27.0668
29.0189
30.98
32.9498
34.9281
36.9148
38.9095
40.9126
42.9259
44.95
46.9848
49.0301
51.0856
53.1511
55.2263
57.3108
59.4064
61.4924
63.5469
65.5971
67.6459
69.6953
71.746
73.7985
75.8532
77.9106
79.971
82.0345
84.1014
86.1719
88.246
90.3238
92.4055
94.4909
96.5801
98.6732
100.77
102.871
104.975
107.084
109.192
111.321
113.391
115.69
)
;
    }
}


// ************************************************************************* //
