/*--------------------------------*- C++ -*----------------------------------*\
| =========                 |                                                 |
| \\      /  F ield         | OpenFOAM: The Open Source CFD Toolbox           |
|  \\    /   O peration     | Version:  2406                                  |
|   \\  /    A nd           | Website:  www.openfoam.com                      |
|    \\/     M anipulation  |                                                 |
\*---------------------------------------------------------------------------*/
FoamFile
{
    version     2.0;
    format      ascii;
    arch        "LSB;label=32;scalar=64";
    class       volScalarField;
    location    "30/fluidRegion";
    object      dgdt.vapour;
}
// * * * * * * * * * * * * * * * * * * * * * * * * * * * * * * * * * * * * * //

dimensions      [0 0 -1 0 0 0 0];

internalField   nonuniform List<scalar> 
70
(
-0
-0
0.0985498
0.181924
0.262282
0.340708
0.42613
0.523012
0.635422
0.766677
0.919519
1.09577
1.29587
1.51823
1.75882
2.01095
2.26536
2.68379
2.87276
2.97636
3.04915
3.08535
3.10454
3.12149
3.13712
3.15191
3.16613
3.17992
3.19338
3.20655
3.21945
3.2321
3.2445
3.25731
3.27467
3.29184
3.30877
3.3254
3.3417
3.35763
3.37315
3.38825
3.40291
3.41709
3.36792
3.34485
3.33625
3.3337
3.33435
3.33695
3.34085
3.34564
3.3511
3.35704
3.36335
3.36994
3.37674
3.3837
3.39077
3.39792
3.40512
3.41235
3.4196
3.42683
3.43405
3.44121
3.44842
3.45528
3.46314
3.48133
)
;

boundaryField
{
    inlet
    {
        type            calculated;
        value           uniform -0;
    }
    outlet
    {
        type            calculated;
        value           uniform 3.48133;
    }
    fixedWalls
    {
        type            calculated;
        value           nonuniform List<scalar> 
280
(
-0
-0
0.0985498
0.181924
0.262282
0.340708
0.42613
0.523012
0.635422
0.766677
0.919519
1.09577
1.29587
1.51823
1.75882
2.01095
2.26536
2.68379
2.87276
2.97636
3.04915
3.08535
3.10454
3.12149
3.13712
3.15191
3.16613
3.17992
3.19338
3.20655
3.21945
3.2321
3.2445
3.25731
3.27467
3.29184
3.30877
3.3254
3.3417
3.35763
3.37315
3.38825
3.40291
3.41709
3.36792
3.34485
3.33625
3.3337
3.33435
3.33695
3.34085
3.34564
3.3511
3.35704
3.36335
3.36994
3.37674
3.3837
3.39077
3.39792
3.40512
3.41235
3.4196
3.42683
3.43405
3.44121
3.44842
3.45528
3.46314
3.48133
-0
-0
0.0985498
0.181924
0.262282
0.340708
0.42613
0.523012
0.635422
0.766677
0.919519
1.09577
1.29587
1.51823
1.75882
2.01095
2.26536
2.68379
2.87276
2.97636
3.04915
3.08535
3.10454
3.12149
3.13712
3.15191
3.16613
3.17992
3.19338
3.20655
3.21945
3.2321
3.2445
3.25731
3.27467
3.29184
3.30877
3.3254
3.3417
3.35763
3.37315
3.38825
3.40291
3.41709
3.36792
3.34485
3.33625
3.3337
3.33435
3.33695
3.34085
3.34564
3.3511
3.35704
3.36335
3.36994
3.37674
3.3837
3.39077
3.39792
3.40512
3.41235
3.4196
3.42683
3.43405
3.44121
3.44842
3.45528
3.46314
3.48133
-0
-0
0.0985498
0.181924
0.262282
0.340708
0.42613
0.523012
0.635422
0.766677
0.919519
1.09577
1.29587
1.51823
1.75882
2.01095
2.26536
2.68379
2.87276
2.97636
3.04915
3.08535
3.10454
3.12149
3.13712
3.15191
3.16613
3.17992
3.19338
3.20655
3.21945
3.2321
3.2445
3.25731
3.27467
3.29184
3.30877
3.3254
3.3417
3.35763
3.37315
3.38825
3.40291
3.41709
3.36792
3.34485
3.33625
3.3337
3.33435
3.33695
3.34085
3.34564
3.3511
3.35704
3.36335
3.36994
3.37674
3.3837
3.39077
3.39792
3.40512
3.41235
3.4196
3.42683
3.43405
3.44121
3.44842
3.45528
3.46314
3.48133
-0
-0
0.0985498
0.181924
0.262282
0.340708
0.42613
0.523012
0.635422
0.766677
0.919519
1.09577
1.29587
1.51823
1.75882
2.01095
2.26536
2.68379
2.87276
2.97636
3.04915
3.08535
3.10454
3.12149
3.13712
3.15191
3.16613
3.17992
3.19338
3.20655
3.21945
3.2321
3.2445
3.25731
3.27467
3.29184
3.30877
3.3254
3.3417
3.35763
3.37315
3.38825
3.40291
3.41709
3.36792
3.34485
3.33625
3.3337
3.33435
3.33695
3.34085
3.34564
3.3511
3.35704
3.36335
3.36994
3.37674
3.3837
3.39077
3.39792
3.40512
3.41235
3.4196
3.42683
3.43405
3.44121
3.44842
3.45528
3.46314
3.48133
)
;
    }
}


// ************************************************************************* //
