/*--------------------------------*- C++ -*----------------------------------*\
| =========                 |                                                 |
| \\      /  F ield         | OpenFOAM: The Open Source CFD Toolbox           |
|  \\    /   O peration     | Version:  2406                                  |
|   \\  /    A nd           | Website:  www.openfoam.com                      |
|    \\/     M anipulation  |                                                 |
\*---------------------------------------------------------------------------*/
FoamFile
{
    version     2.0;
    format      ascii;
    arch        "LSB;label=32;scalar=64";
    class       volTensorField;
    location    "30/fluidRegion";
    object      Kd.liquid.structure;
}
// * * * * * * * * * * * * * * * * * * * * * * * * * * * * * * * * * * * * * //

dimensions      [1 -3 -1 0 0 0 0];

internalField   nonuniform List<tensor> 
70
(
(417.601 0 0 0 417.601 0 0 0 417.601)
(416.864 0 0 0 416.864 0 0 0 416.864)
(426.531 0 0 0 426.531 0 0 0 426.531)
(447.341 0 0 0 447.341 0 0 0 447.341)
(473.179 0 0 0 473.179 0 0 0 473.179)
(504.961 0 0 0 504.961 0 0 0 504.961)
(542.353 0 0 0 542.353 0 0 0 542.353)
(585.85 0 0 0 585.85 0 0 0 585.85)
(635.988 0 0 0 635.988 0 0 0 635.988)
(693.41 0 0 0 693.41 0 0 0 693.41)
(758.734 0 0 0 758.734 0 0 0 758.734)
(832.479 0 0 0 832.479 0 0 0 832.479)
(914.968 0 0 0 914.968 0 0 0 914.968)
(1006.24 0 0 0 1006.24 0 0 0 1006.24)
(1105.97 0 0 0 1105.97 0 0 0 1105.97)
(1213.42 0 0 0 1213.42 0 0 0 1213.42)
(1327.7 0 0 0 1327.7 0 0 0 1327.7)
(1453 0 0 0 1453 0 0 0 1453)
(1581.8 0 0 0 1581.8 0 0 0 1581.8)
(1708.51 0 0 0 1708.51 0 0 0 1708.51)
(1831.47 0 0 0 1831.47 0 0 0 1831.47)
(1949.94 0 0 0 1949.94 0 0 0 1949.94)
(2063.73 0 0 0 2063.73 0 0 0 2063.73)
(2173.22 0 0 0 2173.22 0 0 0 2173.22)
(2278.9 0 0 0 2278.9 0 0 0 2278.9)
(2381.19 0 0 0 2381.19 0 0 0 2381.19)
(2480.46 0 0 0 2480.46 0 0 0 2480.46)
(2577.03 0 0 0 2577.03 0 0 0 2577.03)
(2671.17 0 0 0 2671.17 0 0 0 2671.17)
(2763.12 0 0 0 2763.12 0 0 0 2763.12)
(2853.08 0 0 0 2853.08 0 0 0 2853.08)
(2941.25 0 0 0 2941.25 0 0 0 2941.25)
(3027.77 0 0 0 3027.77 0 0 0 3027.77)
(3112.8 0 0 0 3112.8 0 0 0 3112.8)
(3196.54 0 0 0 3196.54 0 0 0 3196.54)
(3279.14 0 0 0 3279.14 0 0 0 3279.14)
(3360.71 0 0 0 3360.71 0 0 0 3360.71)
(3441.33 0 0 0 3441.33 0 0 0 3441.33)
(3521.07 0 0 0 3521.07 0 0 0 3521.07)
(3600.01 0 0 0 3600.01 0 0 0 3600.01)
(3678.2 0 0 0 3678.2 0 0 0 3678.2)
(3755.71 0 0 0 3755.71 0 0 0 3755.71)
(3832.48 0 0 0 3832.48 0 0 0 3832.48)
(3909.54 0 0 0 3909.54 0 0 0 3909.54)
(4045.18 0 0 0 4045.18 0 0 0 4045.18)
(4196.89 0 0 0 4196.89 0 0 0 4196.89)
(4349.29 0 0 0 4349.29 0 0 0 4349.29)
(4502.87 0 0 0 4502.87 0 0 0 4502.87)
(4657.86 0 0 0 4657.86 0 0 0 4657.86)
(4814.4 0 0 0 4814.4 0 0 0 4814.4)
(4972.58 0 0 0 4972.58 0 0 0 4972.58)
(5132.47 0 0 0 5132.47 0 0 0 5132.47)
(5294.09 0 0 0 5294.09 0 0 0 5294.09)
(5457.5 0 0 0 5457.5 0 0 0 5457.5)
(5622.71 0 0 0 5622.71 0 0 0 5622.71)
(5789.75 0 0 0 5789.75 0 0 0 5789.75)
(5958.65 0 0 0 5958.65 0 0 0 5958.65)
(6129.42 0 0 0 6129.42 0 0 0 6129.42)
(6302.08 0 0 0 6302.08 0 0 0 6302.08)
(6476.65 0 0 0 6476.65 0 0 0 6476.65)
(6653.14 0 0 0 6653.14 0 0 0 6653.14)
(6831.58 0 0 0 6831.58 0 0 0 6831.58)
(7011.97 0 0 0 7011.97 0 0 0 7011.97)
(7194.35 0 0 0 7194.35 0 0 0 7194.35)
(7378.65 0 0 0 7378.65 0 0 0 7378.65)
(7565.24 0 0 0 7565.24 0 0 0 7565.24)
(7752.75 0 0 0 7752.75 0 0 0 7752.75)
(7946.49 0 0 0 7946.49 0 0 0 7946.49)
(8126.76 0 0 0 8126.76 0 0 0 8126.76)
(8366.3 0 0 0 8366.3 0 0 0 8366.3)
)
;

boundaryField
{
    inlet
    {
        type            zeroGradient;
    }
    outlet
    {
        type            zeroGradient;
    }
    fixedWalls
    {
        type            zeroGradient;
    }
}


// ************************************************************************* //
