/*--------------------------------*- C++ -*----------------------------------*\
| =========                 |                                                 |
| \\      /  F ield         | OpenFOAM: The Open Source CFD Toolbox           |
|  \\    /   O peration     | Version:  2406                                  |
|   \\  /    A nd           | Website:  www.openfoam.com                      |
|    \\/     M anipulation  |                                                 |
\*---------------------------------------------------------------------------*/
FoamFile
{
    version     2.0;
    format      ascii;
    arch        "LSB;label=32;scalar=64";
    class       volTensorField;
    location    "30/fluidRegion";
    object      KdTotU;
}
// * * * * * * * * * * * * * * * * * * * * * * * * * * * * * * * * * * * * * //

dimensions      [1 -2 -2 0 0 0 0];

internalField   nonuniform List<tensor> 
70
(
(538.619 0 0 0 538.619 0 0 0 538.619)
(538.301 0 0 0 538.301 0 0 0 538.301)
(551.999 0 0 0 551.999 0 0 0 551.999)
(581.121 0 0 0 581.121 0 0 0 581.121)
(617.717 0 0 0 617.717 0 0 0 617.717)
(663.186 0 0 0 663.186 0 0 0 663.186)
(717.401 0 0 0 717.401 0 0 0 717.401)
(781.43 0 0 0 781.43 0 0 0 781.43)
(856.54 0 0 0 856.54 0 0 0 856.54)
(944.297 0 0 0 944.297 0 0 0 944.297)
(1046.42 0 0 0 1046.42 0 0 0 1046.42)
(1164.71 0 0 0 1164.71 0 0 0 1164.71)
(1300.86 0 0 0 1300.86 0 0 0 1300.86)
(1456.34 0 0 0 1456.34 0 0 0 1456.34)
(1632.19 0 0 0 1632.19 0 0 0 1632.19)
(1828.78 0 0 0 1828.78 0 0 0 1828.78)
(2046.27 0 0 0 2046.27 0 0 0 2046.27)
(2293.76 0 0 0 2293.76 0 0 0 2293.76)
(2559.85 0 0 0 2559.85 0 0 0 2559.85)
(2833.01 0 0 0 2833.01 0 0 0 2833.01)
(3108.9 0 0 0 3108.9 0 0 0 3108.9)
(3384.77 0 0 0 3384.77 0 0 0 3384.77)
(3658.87 0 0 0 3658.87 0 0 0 3658.87)
(3930.83 0 0 0 3930.83 0 0 0 3930.83)
(4200.71 0 0 0 4200.71 0 0 0 4200.71)
(4468.58 0 0 0 4468.58 0 0 0 4468.58)
(4734.53 0 0 0 4734.53 0 0 0 4734.53)
(4998.61 0 0 0 4998.61 0 0 0 4998.61)
(5260.91 0 0 0 5260.91 0 0 0 5260.91)
(5521.46 0 0 0 5521.46 0 0 0 5521.46)
(5780.31 0 0 0 5780.31 0 0 0 5780.31)
(6037.5 0 0 0 6037.5 0 0 0 6037.5)
(6293.05 0 0 0 6293.05 0 0 0 6293.05)
(6547.02 0 0 0 6547.02 0 0 0 6547.02)
(6799.65 0 0 0 6799.65 0 0 0 6799.65)
(7051.1 0 0 0 7051.1 0 0 0 7051.1)
(7301.37 0 0 0 7301.37 0 0 0 7301.37)
(7550.44 0 0 0 7550.44 0 0 0 7550.44)
(7798.32 0 0 0 7798.32 0 0 0 7798.32)
(8044.97 0 0 0 8044.97 0 0 0 8044.97)
(8290.39 0 0 0 8290.39 0 0 0 8290.39)
(8534.54 0 0 0 8534.54 0 0 0 8534.54)
(8777.41 0 0 0 8777.41 0 0 0 8777.41)
(9018.86 0 0 0 9018.86 0 0 0 9018.86)
(9388.78 0 0 0 9388.78 0 0 0 9388.78)
(9789.55 0 0 0 9789.55 0 0 0 9789.55)
(10188.5 0 0 0 10188.5 0 0 0 10188.5)
(10588.1 0 0 0 10588.1 0 0 0 10588.1)
(10989.5 0 0 0 10989.5 0 0 0 10989.5)
(11393.3 0 0 0 11393.3 0 0 0 11393.3)
(11799.7 0 0 0 11799.7 0 0 0 11799.7)
(12208.8 0 0 0 12208.8 0 0 0 12208.8)
(12620.7 0 0 0 12620.7 0 0 0 12620.7)
(13035.3 0 0 0 13035.3 0 0 0 13035.3)
(13452.5 0 0 0 13452.5 0 0 0 13452.5)
(13872.2 0 0 0 13872.2 0 0 0 13872.2)
(14294.4 0 0 0 14294.4 0 0 0 14294.4)
(14718.9 0 0 0 14718.9 0 0 0 14718.9)
(15145.6 0 0 0 15145.6 0 0 0 15145.6)
(15574.4 0 0 0 15574.4 0 0 0 15574.4)
(16005.3 0 0 0 16005.3 0 0 0 16005.3)
(16438.1 0 0 0 16438.1 0 0 0 16438.1)
(16872.7 0 0 0 16872.7 0 0 0 16872.7)
(17309.1 0 0 0 17309.1 0 0 0 17309.1)
(17746.9 0 0 0 17746.9 0 0 0 17746.9)
(18187 0 0 0 18187 0 0 0 18187)
(18625.3 0 0 0 18625.3 0 0 0 18625.3)
(19077.2 0 0 0 19077.2 0 0 0 19077.2)
(19485.1 0 0 0 19485.1 0 0 0 19485.1)
(20060.4 0 0 0 20060.4 0 0 0 20060.4)
)
;

boundaryField
{
    inlet
    {
        type            zeroGradient;
    }
    outlet
    {
        type            zeroGradient;
    }
    fixedWalls
    {
        type            zeroGradient;
    }
}


// ************************************************************************* //
