/*--------------------------------*- C++ -*----------------------------------*\
| =========                 |                                                 |
| \\      /  F ield         | OpenFOAM: The Open Source CFD Toolbox           |
|  \\    /   O peration     | Version:  2406                                  |
|   \\  /    A nd           | Website:  www.openfoam.com                      |
|    \\/     M anipulation  |                                                 |
\*---------------------------------------------------------------------------*/
FoamFile
{
    version     2.0;
    format      ascii;
    arch        "LSB;label=32;scalar=64";
    class       volScalarField;
    location    "30/fluidRegion";
    object      p;
}
// * * * * * * * * * * * * * * * * * * * * * * * * * * * * * * * * * * * * * //

dimensions      [1 -1 -2 0 0 0 0];

internalField   nonuniform List<scalar> 
70
(
7.23036e+06
7.23017e+06
7.22998e+06
7.22979e+06
7.22959e+06
7.22939e+06
7.22919e+06
7.22899e+06
7.22878e+06
7.22857e+06
7.22836e+06
7.22813e+06
7.22791e+06
7.22767e+06
7.22743e+06
7.22718e+06
7.22692e+06
7.22665e+06
7.22636e+06
7.22606e+06
7.22576e+06
7.22544e+06
7.22511e+06
7.22478e+06
7.22443e+06
7.22408e+06
7.22372e+06
7.22334e+06
7.22296e+06
7.22256e+06
7.22216e+06
7.22175e+06
7.22132e+06
7.22089e+06
7.22044e+06
7.21999e+06
7.21952e+06
7.21904e+06
7.21856e+06
7.21806e+06
7.21755e+06
7.21703e+06
7.2165e+06
7.21596e+06
7.21541e+06
7.21484e+06
7.21426e+06
7.21365e+06
7.21303e+06
7.21239e+06
7.21173e+06
7.21106e+06
7.21036e+06
7.20965e+06
7.20892e+06
7.20816e+06
7.20739e+06
7.2066e+06
7.20579e+06
7.20496e+06
7.20411e+06
7.20323e+06
7.20234e+06
7.20143e+06
7.2005e+06
7.19954e+06
7.19857e+06
7.19757e+06
7.19656e+06
7.19552e+06
)
;

boundaryField
{
    inlet
    {
        type            calculated;
        value           uniform 7.23046e+06;
    }
    outlet
    {
        type            calculated;
        value           uniform 7.19498e+06;
    }
    fixedWalls
    {
        type            calculated;
        value           nonuniform List<scalar> 
280
(
7.23036e+06
7.23017e+06
7.22998e+06
7.22979e+06
7.22959e+06
7.22939e+06
7.22919e+06
7.22899e+06
7.22878e+06
7.22857e+06
7.22836e+06
7.22813e+06
7.22791e+06
7.22767e+06
7.22743e+06
7.22718e+06
7.22692e+06
7.22665e+06
7.22636e+06
7.22606e+06
7.22576e+06
7.22544e+06
7.22511e+06
7.22478e+06
7.22443e+06
7.22408e+06
7.22372e+06
7.22334e+06
7.22296e+06
7.22256e+06
7.22216e+06
7.22175e+06
7.22132e+06
7.22089e+06
7.22044e+06
7.21999e+06
7.21952e+06
7.21904e+06
7.21856e+06
7.21806e+06
7.21755e+06
7.21703e+06
7.2165e+06
7.21596e+06
7.21541e+06
7.21484e+06
7.21426e+06
7.21365e+06
7.21303e+06
7.21239e+06
7.21173e+06
7.21106e+06
7.21036e+06
7.20965e+06
7.20892e+06
7.20816e+06
7.20739e+06
7.2066e+06
7.20579e+06
7.20496e+06
7.20411e+06
7.20323e+06
7.20234e+06
7.20143e+06
7.2005e+06
7.19954e+06
7.19857e+06
7.19757e+06
7.19656e+06
7.19552e+06
7.23036e+06
7.23017e+06
7.22998e+06
7.22979e+06
7.22959e+06
7.22939e+06
7.22919e+06
7.22899e+06
7.22878e+06
7.22857e+06
7.22836e+06
7.22813e+06
7.22791e+06
7.22767e+06
7.22743e+06
7.22718e+06
7.22692e+06
7.22665e+06
7.22636e+06
7.22606e+06
7.22576e+06
7.22544e+06
7.22511e+06
7.22478e+06
7.22443e+06
7.22408e+06
7.22372e+06
7.22334e+06
7.22296e+06
7.22256e+06
7.22216e+06
7.22175e+06
7.22132e+06
7.22089e+06
7.22044e+06
7.21999e+06
7.21952e+06
7.21904e+06
7.21856e+06
7.21806e+06
7.21755e+06
7.21703e+06
7.2165e+06
7.21596e+06
7.21541e+06
7.21484e+06
7.21426e+06
7.21365e+06
7.21303e+06
7.21239e+06
7.21173e+06
7.21106e+06
7.21036e+06
7.20965e+06
7.20892e+06
7.20816e+06
7.20739e+06
7.2066e+06
7.20579e+06
7.20496e+06
7.20411e+06
7.20323e+06
7.20234e+06
7.20143e+06
7.2005e+06
7.19954e+06
7.19857e+06
7.19757e+06
7.19656e+06
7.19552e+06
7.23036e+06
7.23017e+06
7.22998e+06
7.22979e+06
7.22959e+06
7.22939e+06
7.22919e+06
7.22899e+06
7.22878e+06
7.22857e+06
7.22836e+06
7.22813e+06
7.22791e+06
7.22767e+06
7.22743e+06
7.22718e+06
7.22692e+06
7.22665e+06
7.22636e+06
7.22606e+06
7.22576e+06
7.22544e+06
7.22511e+06
7.22478e+06
7.22443e+06
7.22408e+06
7.22372e+06
7.22334e+06
7.22296e+06
7.22256e+06
7.22216e+06
7.22175e+06
7.22132e+06
7.22089e+06
7.22044e+06
7.21999e+06
7.21952e+06
7.21904e+06
7.21856e+06
7.21806e+06
7.21755e+06
7.21703e+06
7.2165e+06
7.21596e+06
7.21541e+06
7.21484e+06
7.21426e+06
7.21365e+06
7.21303e+06
7.21239e+06
7.21173e+06
7.21106e+06
7.21036e+06
7.20965e+06
7.20892e+06
7.20816e+06
7.20739e+06
7.2066e+06
7.20579e+06
7.20496e+06
7.20411e+06
7.20323e+06
7.20234e+06
7.20143e+06
7.2005e+06
7.19954e+06
7.19857e+06
7.19757e+06
7.19656e+06
7.19552e+06
7.23036e+06
7.23017e+06
7.22998e+06
7.22979e+06
7.22959e+06
7.22939e+06
7.22919e+06
7.22899e+06
7.22878e+06
7.22857e+06
7.22836e+06
7.22813e+06
7.22791e+06
7.22767e+06
7.22743e+06
7.22718e+06
7.22692e+06
7.22665e+06
7.22636e+06
7.22606e+06
7.22576e+06
7.22544e+06
7.22511e+06
7.22478e+06
7.22443e+06
7.22408e+06
7.22372e+06
7.22334e+06
7.22296e+06
7.22256e+06
7.22216e+06
7.22175e+06
7.22132e+06
7.22089e+06
7.22044e+06
7.21999e+06
7.21952e+06
7.21904e+06
7.21856e+06
7.21806e+06
7.21755e+06
7.21703e+06
7.2165e+06
7.21596e+06
7.21541e+06
7.21484e+06
7.21426e+06
7.21365e+06
7.21303e+06
7.21239e+06
7.21173e+06
7.21106e+06
7.21036e+06
7.20965e+06
7.20892e+06
7.20816e+06
7.20739e+06
7.2066e+06
7.20579e+06
7.20496e+06
7.20411e+06
7.20323e+06
7.20234e+06
7.20143e+06
7.2005e+06
7.19954e+06
7.19857e+06
7.19757e+06
7.19656e+06
7.19552e+06
)
;
    }
}


// ************************************************************************* //
