/*--------------------------------*- C++ -*----------------------------------*\
| =========                 |                                                 |
| \\      /  F ield         | OpenFOAM: The Open Source CFD Toolbox           |
|  \\    /   O peration     | Version:  2406                                  |
|   \\  /    A nd           | Website:  www.openfoam.com                      |
|    \\/     M anipulation  |                                                 |
\*---------------------------------------------------------------------------*/
FoamFile
{
    version     2.0;
    format      ascii;
    arch        "LSB;label=32;scalar=64";
    class       volScalarField;
    location    "0.6/fluidRegion";
    object      dgdt.vapour;
}
// * * * * * * * * * * * * * * * * * * * * * * * * * * * * * * * * * * * * * //

dimensions      [0 0 -1 0 0 0 0];

internalField   nonuniform List<scalar> 
70
(
-0
-0
-1.84402e-20
-3.10125e-19
-3.38186e-19
-2.78256e-19
-1.68814e-19
-1.83551e-19
-2.34359e-19
-3.06688e-19
-4.0164e-19
-5.19323e-19
-6.57162e-19
-8.14914e-19
-9.8822e-19
-1.17218e-18
-1.35797e-18
-1.5449e-18
-1.732e-18
-1.92156e-18
-2.11416e-18
-2.3122e-18
-2.52233e-18
-2.74598e-18
-2.98439e-18
-3.23453e-18
-3.49443e-18
-3.76148e-18
-4.03142e-18
-4.30317e-18
-4.58126e-18
-4.85075e-18
-5.11155e-18
-5.36238e-18
-5.60096e-18
-5.82933e-18
0.171896
0.338007
0.495122
0.644514
0.786623
0.923124
1.05535
1.18421
1.31037
1.43428
1.55622
1.67632
1.79457
1.91088
2.02506
2.13683
2.24588
2.35187
2.45443
2.55318
2.67916
2.79209
2.8711
2.93365
2.98639
3.03246
3.05075
3.05886
3.06641
3.07363
3.08063
3.08749
3.09425
3.10662
)
;

boundaryField
{
    inlet
    {
        type            calculated;
        value           uniform -0;
    }
    outlet
    {
        type            calculated;
        value           uniform 3.10662;
    }
    fixedWalls
    {
        type            calculated;
        value           nonuniform List<scalar> 
280
(
-0
-0
-1.84402e-20
-3.10125e-19
-3.38186e-19
-2.78256e-19
-1.68814e-19
-1.83551e-19
-2.34359e-19
-3.06688e-19
-4.0164e-19
-5.19323e-19
-6.57162e-19
-8.14914e-19
-9.8822e-19
-1.17218e-18
-1.35797e-18
-1.5449e-18
-1.732e-18
-1.92156e-18
-2.11416e-18
-2.3122e-18
-2.52233e-18
-2.74598e-18
-2.98439e-18
-3.23453e-18
-3.49443e-18
-3.76148e-18
-4.03142e-18
-4.30317e-18
-4.58126e-18
-4.85075e-18
-5.11155e-18
-5.36238e-18
-5.60096e-18
-5.82933e-18
0.171896
0.338007
0.495122
0.644514
0.786623
0.923124
1.05535
1.18421
1.31037
1.43428
1.55622
1.67632
1.79457
1.91088
2.02506
2.13683
2.24588
2.35187
2.45443
2.55318
2.67916
2.79209
2.8711
2.93365
2.98639
3.03246
3.05075
3.05886
3.06641
3.07363
3.08063
3.08749
3.09425
3.10662
-0
-0
-1.84402e-20
-3.10125e-19
-3.38186e-19
-2.78256e-19
-1.68814e-19
-1.83551e-19
-2.34359e-19
-3.06688e-19
-4.0164e-19
-5.19323e-19
-6.57162e-19
-8.14914e-19
-9.8822e-19
-1.17218e-18
-1.35797e-18
-1.5449e-18
-1.732e-18
-1.92156e-18
-2.11416e-18
-2.3122e-18
-2.52233e-18
-2.74598e-18
-2.98439e-18
-3.23453e-18
-3.49443e-18
-3.76148e-18
-4.03142e-18
-4.30317e-18
-4.58126e-18
-4.85075e-18
-5.11155e-18
-5.36238e-18
-5.60096e-18
-5.82933e-18
0.171896
0.338007
0.495122
0.644514
0.786623
0.923124
1.05535
1.18421
1.31037
1.43428
1.55622
1.67632
1.79457
1.91088
2.02506
2.13683
2.24588
2.35187
2.45443
2.55318
2.67916
2.79209
2.8711
2.93365
2.98639
3.03246
3.05075
3.05886
3.06641
3.07363
3.08063
3.08749
3.09425
3.10662
-0
-0
-1.84402e-20
-3.10125e-19
-3.38186e-19
-2.78256e-19
-1.68814e-19
-1.83551e-19
-2.34359e-19
-3.06688e-19
-4.0164e-19
-5.19323e-19
-6.57162e-19
-8.14914e-19
-9.8822e-19
-1.17218e-18
-1.35797e-18
-1.5449e-18
-1.732e-18
-1.92156e-18
-2.11416e-18
-2.3122e-18
-2.52233e-18
-2.74598e-18
-2.98439e-18
-3.23453e-18
-3.49443e-18
-3.76148e-18
-4.03142e-18
-4.30317e-18
-4.58126e-18
-4.85075e-18
-5.11155e-18
-5.36238e-18
-5.60096e-18
-5.82933e-18
0.171896
0.338007
0.495122
0.644514
0.786623
0.923124
1.05535
1.18421
1.31037
1.43428
1.55622
1.67632
1.79457
1.91088
2.02506
2.13683
2.24588
2.35187
2.45443
2.55318
2.67916
2.79209
2.8711
2.93365
2.98639
3.03246
3.05075
3.05886
3.06641
3.07363
3.08063
3.08749
3.09425
3.10662
-0
-0
-1.84402e-20
-3.10125e-19
-3.38186e-19
-2.78256e-19
-1.68814e-19
-1.83551e-19
-2.34359e-19
-3.06688e-19
-4.0164e-19
-5.19323e-19
-6.57162e-19
-8.14914e-19
-9.8822e-19
-1.17218e-18
-1.35797e-18
-1.5449e-18
-1.732e-18
-1.92156e-18
-2.11416e-18
-2.3122e-18
-2.52233e-18
-2.74598e-18
-2.98439e-18
-3.23453e-18
-3.49443e-18
-3.76148e-18
-4.03142e-18
-4.30317e-18
-4.58126e-18
-4.85075e-18
-5.11155e-18
-5.36238e-18
-5.60096e-18
-5.82933e-18
0.171896
0.338007
0.495122
0.644514
0.786623
0.923124
1.05535
1.18421
1.31037
1.43428
1.55622
1.67632
1.79457
1.91088
2.02506
2.13683
2.24588
2.35187
2.45443
2.55318
2.67916
2.79209
2.8711
2.93365
2.98639
3.03246
3.05075
3.05886
3.06641
3.07363
3.08063
3.08749
3.09425
3.10662
)
;
    }
}


// ************************************************************************* //
