/*--------------------------------*- C++ -*----------------------------------*\
| =========                 |                                                 |
| \\      /  F ield         | OpenFOAM: The Open Source CFD Toolbox           |
|  \\    /   O peration     | Version:  2406                                  |
|   \\  /    A nd           | Website:  www.openfoam.com                      |
|    \\/     M anipulation  |                                                 |
\*---------------------------------------------------------------------------*/
FoamFile
{
    version     2.0;
    format      ascii;
    arch        "LSB;label=32;scalar=64";
    class       volTensorField;
    location    "0.6/fluidRegion";
    object      Kd.liquid.structure;
}
// * * * * * * * * * * * * * * * * * * * * * * * * * * * * * * * * * * * * * //

dimensions      [1 -3 -1 0 0 0 0];

internalField   nonuniform List<tensor> 
70
(
(1134.62 0 0 0 1134.62 0 0 0 1134.62)
(1133.88 0 0 0 1133.88 0 0 0 1133.88)
(1133.14 0 0 0 1133.14 0 0 0 1133.14)
(1132.4 0 0 0 1132.4 0 0 0 1132.4)
(1131.65 0 0 0 1131.65 0 0 0 1131.65)
(1130.91 0 0 0 1130.91 0 0 0 1130.91)
(1130.16 0 0 0 1130.16 0 0 0 1130.16)
(1129.41 0 0 0 1129.41 0 0 0 1129.41)
(1128.66 0 0 0 1128.66 0 0 0 1128.66)
(1127.91 0 0 0 1127.91 0 0 0 1127.91)
(1127.15 0 0 0 1127.15 0 0 0 1127.15)
(1126.4 0 0 0 1126.4 0 0 0 1126.4)
(1125.64 0 0 0 1125.64 0 0 0 1125.64)
(1124.88 0 0 0 1124.88 0 0 0 1124.88)
(1124.12 0 0 0 1124.12 0 0 0 1124.12)
(1123.36 0 0 0 1123.36 0 0 0 1123.36)
(1122.59 0 0 0 1122.59 0 0 0 1122.59)
(1121.82 0 0 0 1121.82 0 0 0 1121.82)
(1121.06 0 0 0 1121.06 0 0 0 1121.06)
(1120.29 0 0 0 1120.29 0 0 0 1120.29)
(1119.51 0 0 0 1119.51 0 0 0 1119.51)
(1118.74 0 0 0 1118.74 0 0 0 1118.74)
(1117.96 0 0 0 1117.96 0 0 0 1117.96)
(1117.19 0 0 0 1117.19 0 0 0 1117.19)
(1116.41 0 0 0 1116.41 0 0 0 1116.41)
(1115.62 0 0 0 1115.62 0 0 0 1115.62)
(1114.84 0 0 0 1114.84 0 0 0 1114.84)
(1114.06 0 0 0 1114.06 0 0 0 1114.06)
(1113.27 0 0 0 1113.27 0 0 0 1113.27)
(1112.48 0 0 0 1112.48 0 0 0 1112.48)
(1111.69 0 0 0 1111.69 0 0 0 1111.69)
(1110.9 0 0 0 1110.9 0 0 0 1110.9)
(1110.1 0 0 0 1110.1 0 0 0 1110.1)
(1109.31 0 0 0 1109.31 0 0 0 1109.31)
(1108.51 0 0 0 1108.51 0 0 0 1108.51)
(1107.71 0 0 0 1107.71 0 0 0 1107.71)
(1133.81 0 0 0 1133.81 0 0 0 1133.81)
(1180.26 0 0 0 1180.26 0 0 0 1180.26)
(1242.34 0 0 0 1242.34 0 0 0 1242.34)
(1316.84 0 0 0 1316.84 0 0 0 1316.84)
(1403.08 0 0 0 1403.08 0 0 0 1403.08)
(1499.62 0 0 0 1499.62 0 0 0 1499.62)
(1605.13 0 0 0 1605.13 0 0 0 1605.13)
(1718.58 0 0 0 1718.58 0 0 0 1718.58)
(1839.1 0 0 0 1839.1 0 0 0 1839.1)
(1965.95 0 0 0 1965.95 0 0 0 1965.95)
(2098.44 0 0 0 2098.44 0 0 0 2098.44)
(2235.96 0 0 0 2235.96 0 0 0 2235.96)
(2377.94 0 0 0 2377.94 0 0 0 2377.94)
(2523.85 0 0 0 2523.85 0 0 0 2523.85)
(2673.18 0 0 0 2673.18 0 0 0 2673.18)
(2825.44 0 0 0 2825.44 0 0 0 2825.44)
(2980.19 0 0 0 2980.19 0 0 0 2980.19)
(3136.98 0 0 0 3136.98 0 0 0 3136.98)
(3295.39 0 0 0 3295.39 0 0 0 3295.39)
(3455.06 0 0 0 3455.06 0 0 0 3455.06)
(3617.07 0 0 0 3617.07 0 0 0 3617.07)
(3780.92 0 0 0 3780.92 0 0 0 3780.92)
(3944.78 0 0 0 3944.78 0 0 0 3944.78)
(4107.47 0 0 0 4107.47 0 0 0 4107.47)
(4268.45 0 0 0 4268.45 0 0 0 4268.45)
(4427.44 0 0 0 4427.44 0 0 0 4427.44)
(4583.42 0 0 0 4583.42 0 0 0 4583.42)
(4735.9 0 0 0 4735.9 0 0 0 4735.9)
(4884.93 0 0 0 4884.93 0 0 0 4884.93)
(5030.75 0 0 0 5030.75 0 0 0 5030.75)
(5173.55 0 0 0 5173.55 0 0 0 5173.55)
(5313.49 0 0 0 5313.49 0 0 0 5313.49)
(5450.76 0 0 0 5450.76 0 0 0 5450.76)
(5585.66 0 0 0 5585.66 0 0 0 5585.66)
)
;

boundaryField
{
    inlet
    {
        type            zeroGradient;
    }
    outlet
    {
        type            zeroGradient;
    }
    fixedWalls
    {
        type            zeroGradient;
    }
}


// ************************************************************************* //
