/*--------------------------------*- C++ -*----------------------------------*\
| =========                 |                                                 |
| \\      /  F ield         | OpenFOAM: The Open Source CFD Toolbox           |
|  \\    /   O peration     | Version:  2406                                  |
|   \\  /    A nd           | Website:  www.openfoam.com                      |
|    \\/     M anipulation  |                                                 |
\*---------------------------------------------------------------------------*/
FoamFile
{
    version     2.0;
    format      ascii;
    arch        "LSB;label=32;scalar=64";
    class       volTensorField;
    location    "0.6/fluidRegion";
    object      KdTotU;
}
// * * * * * * * * * * * * * * * * * * * * * * * * * * * * * * * * * * * * * //

dimensions      [1 -2 -2 0 0 0 0];

internalField   nonuniform List<tensor> 
70
(
(5073.57 0 0 0 5073.57 0 0 0 5073.57)
(5080.51 0 0 0 5080.51 0 0 0 5080.51)
(5087.51 0 0 0 5087.51 0 0 0 5087.51)
(5094.57 0 0 0 5094.57 0 0 0 5094.57)
(5101.68 0 0 0 5101.68 0 0 0 5101.68)
(5108.84 0 0 0 5108.84 0 0 0 5108.84)
(5116.06 0 0 0 5116.06 0 0 0 5116.06)
(5123.32 0 0 0 5123.32 0 0 0 5123.32)
(5130.64 0 0 0 5130.64 0 0 0 5130.64)
(5138 0 0 0 5138 0 0 0 5138)
(5145.41 0 0 0 5145.41 0 0 0 5145.41)
(5152.87 0 0 0 5152.87 0 0 0 5152.87)
(5160.37 0 0 0 5160.37 0 0 0 5160.37)
(5167.92 0 0 0 5167.92 0 0 0 5167.92)
(5175.51 0 0 0 5175.51 0 0 0 5175.51)
(5183.14 0 0 0 5183.14 0 0 0 5183.14)
(5190.82 0 0 0 5190.82 0 0 0 5190.82)
(5198.53 0 0 0 5198.53 0 0 0 5198.53)
(5206.29 0 0 0 5206.29 0 0 0 5206.29)
(5214.08 0 0 0 5214.08 0 0 0 5214.08)
(5221.9 0 0 0 5221.9 0 0 0 5221.9)
(5229.77 0 0 0 5229.77 0 0 0 5229.77)
(5237.66 0 0 0 5237.66 0 0 0 5237.66)
(5245.59 0 0 0 5245.59 0 0 0 5245.59)
(5253.55 0 0 0 5253.55 0 0 0 5253.55)
(5261.55 0 0 0 5261.55 0 0 0 5261.55)
(5269.57 0 0 0 5269.57 0 0 0 5269.57)
(5277.62 0 0 0 5277.62 0 0 0 5277.62)
(5285.7 0 0 0 5285.7 0 0 0 5285.7)
(5293.81 0 0 0 5293.81 0 0 0 5293.81)
(5301.94 0 0 0 5301.94 0 0 0 5301.94)
(5310.09 0 0 0 5310.09 0 0 0 5310.09)
(5318.27 0 0 0 5318.27 0 0 0 5318.27)
(5326.47 0 0 0 5326.47 0 0 0 5326.47)
(5334.7 0 0 0 5334.7 0 0 0 5334.7)
(5342.94 0 0 0 5342.94 0 0 0 5342.94)
(5484.94 0 0 0 5484.94 0 0 0 5484.94)
(5733.5 0 0 0 5733.5 0 0 0 5733.5)
(6066.9 0 0 0 6066.9 0 0 0 6066.9)
(6470.74 0 0 0 6470.74 0 0 0 6470.74)
(6943.02 0 0 0 6943.02 0 0 0 6943.02)
(7478.13 0 0 0 7478.13 0 0 0 7478.13)
(8071.18 0 0 0 8071.18 0 0 0 8071.18)
(8718.79 0 0 0 8718.79 0 0 0 8718.79)
(9418.17 0 0 0 9418.17 0 0 0 9418.17)
(10167.1 0 0 0 10167.1 0 0 0 10167.1)
(10963.5 0 0 0 10963.5 0 0 0 10963.5)
(11805.5 0 0 0 11805.5 0 0 0 11805.5)
(12691.5 0 0 0 12691.5 0 0 0 12691.5)
(13619.8 0 0 0 13619.8 0 0 0 13619.8)
(14588.5 0 0 0 14588.5 0 0 0 14588.5)
(15595.9 0 0 0 15595.9 0 0 0 15595.9)
(16640.2 0 0 0 16640.2 0 0 0 16640.2)
(17719.2 0 0 0 17719.2 0 0 0 17719.2)
(18831 0 0 0 18831 0 0 0 18831)
(19973.7 0 0 0 19973.7 0 0 0 19973.7)
(21154.6 0 0 0 21154.6 0 0 0 21154.6)
(22371.5 0 0 0 22371.5 0 0 0 22371.5)
(23612.1 0 0 0 23612.1 0 0 0 23612.1)
(24867.2 0 0 0 24867.2 0 0 0 24867.2)
(26131.8 0 0 0 26131.8 0 0 0 26131.8)
(27402.9 0 0 0 27402.9 0 0 0 27402.9)
(28671.8 0 0 0 28671.8 0 0 0 28671.8)
(29932.9 0 0 0 29932.9 0 0 0 29932.9)
(31185.1 0 0 0 31185.1 0 0 0 31185.1)
(32428.8 0 0 0 32428.8 0 0 0 32428.8)
(33664.2 0 0 0 33664.2 0 0 0 33664.2)
(34891.4 0 0 0 34891.4 0 0 0 34891.4)
(36111.7 0 0 0 36111.7 0 0 0 36111.7)
(37313.6 0 0 0 37313.6 0 0 0 37313.6)
)
;

boundaryField
{
    inlet
    {
        type            zeroGradient;
    }
    outlet
    {
        type            zeroGradient;
    }
    fixedWalls
    {
        type            zeroGradient;
    }
}


// ************************************************************************* //
