/*--------------------------------*- C++ -*----------------------------------*\
| =========                 |                                                 |
| \\      /  F ield         | OpenFOAM: The Open Source CFD Toolbox           |
|  \\    /   O peration     | Version:  2406                                  |
|   \\  /    A nd           | Website:  www.openfoam.com                      |
|    \\/     M anipulation  |                                                 |
\*---------------------------------------------------------------------------*/
FoamFile
{
    version     2.0;
    format      ascii;
    arch        "LSB;label=32;scalar=64";
    class       volScalarField;
    location    "0.6/fluidRegion";
    object      p;
}
// * * * * * * * * * * * * * * * * * * * * * * * * * * * * * * * * * * * * * //

dimensions      [1 -1 -2 0 0 0 0];

internalField   nonuniform List<scalar> 
70
(
1.47699e+07
1.47696e+07
1.47693e+07
1.4769e+07
1.47687e+07
1.47684e+07
1.47681e+07
1.47678e+07
1.47675e+07
1.47672e+07
1.47669e+07
1.47667e+07
1.47664e+07
1.47661e+07
1.47658e+07
1.47655e+07
1.47652e+07
1.47648e+07
1.47645e+07
1.47642e+07
1.47639e+07
1.47636e+07
1.47633e+07
1.4763e+07
1.47627e+07
1.47624e+07
1.47621e+07
1.47618e+07
1.47615e+07
1.47611e+07
1.47608e+07
1.47605e+07
1.47602e+07
1.47599e+07
1.47596e+07
1.47593e+07
1.47589e+07
1.47586e+07
1.47582e+07
1.47578e+07
1.47573e+07
1.47568e+07
1.47563e+07
1.47557e+07
1.47551e+07
1.47545e+07
1.47538e+07
1.4753e+07
1.47522e+07
1.47513e+07
1.47504e+07
1.47494e+07
1.47484e+07
1.47473e+07
1.47461e+07
1.47449e+07
1.47436e+07
1.47423e+07
1.47408e+07
1.47393e+07
1.47378e+07
1.47362e+07
1.47345e+07
1.47327e+07
1.47309e+07
1.4729e+07
1.47271e+07
1.47251e+07
1.4723e+07
1.47209e+07
)
;

boundaryField
{
    inlet
    {
        type            calculated;
        value           uniform 1.477e+07;
    }
    outlet
    {
        type            calculated;
        value           uniform 1.47198e+07;
    }
    fixedWalls
    {
        type            calculated;
        value           nonuniform List<scalar> 
280
(
1.47699e+07
1.47696e+07
1.47693e+07
1.4769e+07
1.47687e+07
1.47684e+07
1.47681e+07
1.47678e+07
1.47675e+07
1.47672e+07
1.47669e+07
1.47667e+07
1.47664e+07
1.47661e+07
1.47658e+07
1.47655e+07
1.47652e+07
1.47648e+07
1.47645e+07
1.47642e+07
1.47639e+07
1.47636e+07
1.47633e+07
1.4763e+07
1.47627e+07
1.47624e+07
1.47621e+07
1.47618e+07
1.47615e+07
1.47611e+07
1.47608e+07
1.47605e+07
1.47602e+07
1.47599e+07
1.47596e+07
1.47593e+07
1.47589e+07
1.47586e+07
1.47582e+07
1.47578e+07
1.47573e+07
1.47568e+07
1.47563e+07
1.47557e+07
1.47551e+07
1.47545e+07
1.47538e+07
1.4753e+07
1.47522e+07
1.47513e+07
1.47504e+07
1.47494e+07
1.47484e+07
1.47473e+07
1.47461e+07
1.47449e+07
1.47436e+07
1.47423e+07
1.47408e+07
1.47393e+07
1.47378e+07
1.47362e+07
1.47345e+07
1.47327e+07
1.47309e+07
1.4729e+07
1.47271e+07
1.47251e+07
1.4723e+07
1.47209e+07
1.47699e+07
1.47696e+07
1.47693e+07
1.4769e+07
1.47687e+07
1.47684e+07
1.47681e+07
1.47678e+07
1.47675e+07
1.47672e+07
1.47669e+07
1.47667e+07
1.47664e+07
1.47661e+07
1.47658e+07
1.47655e+07
1.47652e+07
1.47648e+07
1.47645e+07
1.47642e+07
1.47639e+07
1.47636e+07
1.47633e+07
1.4763e+07
1.47627e+07
1.47624e+07
1.47621e+07
1.47618e+07
1.47615e+07
1.47611e+07
1.47608e+07
1.47605e+07
1.47602e+07
1.47599e+07
1.47596e+07
1.47593e+07
1.47589e+07
1.47586e+07
1.47582e+07
1.47578e+07
1.47573e+07
1.47568e+07
1.47563e+07
1.47557e+07
1.47551e+07
1.47545e+07
1.47538e+07
1.4753e+07
1.47522e+07
1.47513e+07
1.47504e+07
1.47494e+07
1.47484e+07
1.47473e+07
1.47461e+07
1.47449e+07
1.47436e+07
1.47423e+07
1.47408e+07
1.47393e+07
1.47378e+07
1.47362e+07
1.47345e+07
1.47327e+07
1.47309e+07
1.4729e+07
1.47271e+07
1.47251e+07
1.4723e+07
1.47209e+07
1.47699e+07
1.47696e+07
1.47693e+07
1.4769e+07
1.47687e+07
1.47684e+07
1.47681e+07
1.47678e+07
1.47675e+07
1.47672e+07
1.47669e+07
1.47667e+07
1.47664e+07
1.47661e+07
1.47658e+07
1.47655e+07
1.47652e+07
1.47648e+07
1.47645e+07
1.47642e+07
1.47639e+07
1.47636e+07
1.47633e+07
1.4763e+07
1.47627e+07
1.47624e+07
1.47621e+07
1.47618e+07
1.47615e+07
1.47611e+07
1.47608e+07
1.47605e+07
1.47602e+07
1.47599e+07
1.47596e+07
1.47593e+07
1.47589e+07
1.47586e+07
1.47582e+07
1.47578e+07
1.47573e+07
1.47568e+07
1.47563e+07
1.47557e+07
1.47551e+07
1.47545e+07
1.47538e+07
1.4753e+07
1.47522e+07
1.47513e+07
1.47504e+07
1.47494e+07
1.47484e+07
1.47473e+07
1.47461e+07
1.47449e+07
1.47436e+07
1.47423e+07
1.47408e+07
1.47393e+07
1.47378e+07
1.47362e+07
1.47345e+07
1.47327e+07
1.47309e+07
1.4729e+07
1.47271e+07
1.47251e+07
1.4723e+07
1.47209e+07
1.47699e+07
1.47696e+07
1.47693e+07
1.4769e+07
1.47687e+07
1.47684e+07
1.47681e+07
1.47678e+07
1.47675e+07
1.47672e+07
1.47669e+07
1.47667e+07
1.47664e+07
1.47661e+07
1.47658e+07
1.47655e+07
1.47652e+07
1.47648e+07
1.47645e+07
1.47642e+07
1.47639e+07
1.47636e+07
1.47633e+07
1.4763e+07
1.47627e+07
1.47624e+07
1.47621e+07
1.47618e+07
1.47615e+07
1.47611e+07
1.47608e+07
1.47605e+07
1.47602e+07
1.47599e+07
1.47596e+07
1.47593e+07
1.47589e+07
1.47586e+07
1.47582e+07
1.47578e+07
1.47573e+07
1.47568e+07
1.47563e+07
1.47557e+07
1.47551e+07
1.47545e+07
1.47538e+07
1.4753e+07
1.47522e+07
1.47513e+07
1.47504e+07
1.47494e+07
1.47484e+07
1.47473e+07
1.47461e+07
1.47449e+07
1.47436e+07
1.47423e+07
1.47408e+07
1.47393e+07
1.47378e+07
1.47362e+07
1.47345e+07
1.47327e+07
1.47309e+07
1.4729e+07
1.47271e+07
1.47251e+07
1.4723e+07
1.47209e+07
)
;
    }
}


// ************************************************************************* //
