/*--------------------------------*- C++ -*----------------------------------*\
| =========                 |                                                 |
| \\      /  F ield         | OpenFOAM: The Open Source CFD Toolbox           |
|  \\    /   O peration     | Version:  2406                                  |
|   \\  /    A nd           | Website:  www.openfoam.com                      |
|    \\/     M anipulation  |                                                 |
\*---------------------------------------------------------------------------*/
FoamFile
{
    version     2.0;
    format      ascii;
    arch        "LSB;label=32;scalar=64";
    class       volScalarField;
    location    "30/fluidRegion";
    object      dgdt.vapour;
}
// * * * * * * * * * * * * * * * * * * * * * * * * * * * * * * * * * * * * * //

dimensions      [0 0 -1 0 0 0 0];

internalField   nonuniform List<scalar> 
70
(
-7.35128e-22
-7.89522e-22
-1.62665e-21
-5.23006e-23
-4.94164e-24
-3.72256e-22
-1.43102e-21
-2.58119e-25
-3.03078e-23
-4.30267e-23
-1.25142e-24
-1.63764e-23
-6.1149e-23
-7.33928e-24
-5.75706e-23
-7.41884e-23
-9.73659e-23
-9.66922e-22
-9.65382e-22
-3.25384e-23
-1.3862e-22
-1.18473e-22
-2.28647e-22
-3.05016e-22
-2.01278e-21
-7.58534e-22
-1.63396e-21
-2.67075e-22
-1.94688e-22
-5.33571e-22
-6.07289e-22
-7.07548e-22
-3.20559e-22
-6.53008e-22
-1.03379e-21
-5.03798e-22
-3.76254e-22
-1.0703e-22
-4.34533e-22
-5.54271e-22
-3.40247e-22
-2.08655e-22
-5.56326e-22
-8.1258e-22
-2.08516e-22
-5.02009e-24
-7.20811e-23
-1.89221e-23
-1.05596e-23
-1.17374e-23
-2.97862e-23
-4.21467e-22
-2.13275e-22
-8.94108e-23
-2.64526e-23
-5.48764e-22
-4.13226e-23
-1.82645e-22
-3.66965e-22
-4.0847e-22
-1.17504e-22
-3.16961e-22
-3.41601e-22
-1.66838e-22
-2.57088e-22
-1.27059e-22
-6.16635e-22
-4.69445e-22
-3.87219e-22
-1.52406e-22
)
;

boundaryField
{
    inlet
    {
        type            calculated;
        value           uniform -7.35128e-22;
    }
    outlet
    {
        type            calculated;
        value           uniform -1.52406e-22;
    }
    fixedWalls
    {
        type            calculated;
        value           nonuniform List<scalar> 
280
(
-7.35128e-22
-7.89522e-22
-1.62665e-21
-5.23006e-23
-4.94164e-24
-3.72256e-22
-1.43102e-21
-2.58119e-25
-3.03078e-23
-4.30267e-23
-1.25142e-24
-1.63764e-23
-6.1149e-23
-7.33928e-24
-5.75706e-23
-7.41884e-23
-9.73659e-23
-9.66922e-22
-9.65382e-22
-3.25384e-23
-1.3862e-22
-1.18473e-22
-2.28647e-22
-3.05016e-22
-2.01278e-21
-7.58534e-22
-1.63396e-21
-2.67075e-22
-1.94688e-22
-5.33571e-22
-6.07289e-22
-7.07548e-22
-3.20559e-22
-6.53008e-22
-1.03379e-21
-5.03798e-22
-3.76254e-22
-1.0703e-22
-4.34533e-22
-5.54271e-22
-3.40247e-22
-2.08655e-22
-5.56326e-22
-8.1258e-22
-2.08516e-22
-5.02009e-24
-7.20811e-23
-1.89221e-23
-1.05596e-23
-1.17374e-23
-2.97862e-23
-4.21467e-22
-2.13275e-22
-8.94108e-23
-2.64526e-23
-5.48764e-22
-4.13226e-23
-1.82645e-22
-3.66965e-22
-4.0847e-22
-1.17504e-22
-3.16961e-22
-3.41601e-22
-1.66838e-22
-2.57088e-22
-1.27059e-22
-6.16635e-22
-4.69445e-22
-3.87219e-22
-1.52406e-22
-7.35128e-22
-7.89522e-22
-1.62665e-21
-5.23006e-23
-4.94164e-24
-3.72256e-22
-1.43102e-21
-2.58119e-25
-3.03078e-23
-4.30267e-23
-1.25142e-24
-1.63764e-23
-6.1149e-23
-7.33928e-24
-5.75706e-23
-7.41884e-23
-9.73659e-23
-9.66922e-22
-9.65382e-22
-3.25384e-23
-1.3862e-22
-1.18473e-22
-2.28647e-22
-3.05016e-22
-2.01278e-21
-7.58534e-22
-1.63396e-21
-2.67075e-22
-1.94688e-22
-5.33571e-22
-6.07289e-22
-7.07548e-22
-3.20559e-22
-6.53008e-22
-1.03379e-21
-5.03798e-22
-3.76254e-22
-1.0703e-22
-4.34533e-22
-5.54271e-22
-3.40247e-22
-2.08655e-22
-5.56326e-22
-8.1258e-22
-2.08516e-22
-5.02009e-24
-7.20811e-23
-1.89221e-23
-1.05596e-23
-1.17374e-23
-2.97862e-23
-4.21467e-22
-2.13275e-22
-8.94108e-23
-2.64526e-23
-5.48764e-22
-4.13226e-23
-1.82645e-22
-3.66965e-22
-4.0847e-22
-1.17504e-22
-3.16961e-22
-3.41601e-22
-1.66838e-22
-2.57088e-22
-1.27059e-22
-6.16635e-22
-4.69445e-22
-3.87219e-22
-1.52406e-22
-7.35128e-22
-7.89522e-22
-1.62665e-21
-5.23006e-23
-4.94164e-24
-3.72256e-22
-1.43102e-21
-2.58119e-25
-3.03078e-23
-4.30267e-23
-1.25142e-24
-1.63764e-23
-6.1149e-23
-7.33928e-24
-5.75706e-23
-7.41884e-23
-9.73659e-23
-9.66922e-22
-9.65382e-22
-3.25384e-23
-1.3862e-22
-1.18473e-22
-2.28647e-22
-3.05016e-22
-2.01278e-21
-7.58534e-22
-1.63396e-21
-2.67075e-22
-1.94688e-22
-5.33571e-22
-6.07289e-22
-7.07548e-22
-3.20559e-22
-6.53008e-22
-1.03379e-21
-5.03798e-22
-3.76254e-22
-1.0703e-22
-4.34533e-22
-5.54271e-22
-3.40247e-22
-2.08655e-22
-5.56326e-22
-8.1258e-22
-2.08516e-22
-5.02009e-24
-7.20811e-23
-1.89221e-23
-1.05596e-23
-1.17374e-23
-2.97862e-23
-4.21467e-22
-2.13275e-22
-8.94108e-23
-2.64526e-23
-5.48764e-22
-4.13226e-23
-1.82645e-22
-3.66965e-22
-4.0847e-22
-1.17504e-22
-3.16961e-22
-3.41601e-22
-1.66838e-22
-2.57088e-22
-1.27059e-22
-6.16635e-22
-4.69445e-22
-3.87219e-22
-1.52406e-22
-7.35128e-22
-7.89522e-22
-1.62665e-21
-5.23006e-23
-4.94164e-24
-3.72256e-22
-1.43102e-21
-2.58119e-25
-3.03078e-23
-4.30267e-23
-1.25142e-24
-1.63764e-23
-6.1149e-23
-7.33928e-24
-5.75706e-23
-7.41884e-23
-9.73659e-23
-9.66922e-22
-9.65382e-22
-3.25384e-23
-1.3862e-22
-1.18473e-22
-2.28647e-22
-3.05016e-22
-2.01278e-21
-7.58534e-22
-1.63396e-21
-2.67075e-22
-1.94688e-22
-5.33571e-22
-6.07289e-22
-7.07548e-22
-3.20559e-22
-6.53008e-22
-1.03379e-21
-5.03798e-22
-3.76254e-22
-1.0703e-22
-4.34533e-22
-5.54271e-22
-3.40247e-22
-2.08655e-22
-5.56326e-22
-8.1258e-22
-2.08516e-22
-5.02009e-24
-7.20811e-23
-1.89221e-23
-1.05596e-23
-1.17374e-23
-2.97862e-23
-4.21467e-22
-2.13275e-22
-8.94108e-23
-2.64526e-23
-5.48764e-22
-4.13226e-23
-1.82645e-22
-3.66965e-22
-4.0847e-22
-1.17504e-22
-3.16961e-22
-3.41601e-22
-1.66838e-22
-2.57088e-22
-1.27059e-22
-6.16635e-22
-4.69445e-22
-3.87219e-22
-1.52406e-22
)
;
    }
}


// ************************************************************************* //
