/*--------------------------------*- C++ -*----------------------------------*\
| =========                 |                                                 |
| \\      /  F ield         | OpenFOAM: The Open Source CFD Toolbox           |
|  \\    /   O peration     | Version:  2406                                  |
|   \\  /    A nd           | Website:  www.openfoam.com                      |
|    \\/     M anipulation  |                                                 |
\*---------------------------------------------------------------------------*/
FoamFile
{
    version     2.0;
    format      ascii;
    arch        "LSB;label=32;scalar=64";
    class       volTensorField;
    location    "30/fluidRegion";
    object      Kd.liquid.structure;
}
// * * * * * * * * * * * * * * * * * * * * * * * * * * * * * * * * * * * * * //

dimensions      [1 -3 -1 0 0 0 0];

internalField   nonuniform List<tensor> 
70
(
(418.422 0 0 0 418.422 0 0 0 418.422)
(418.348 0 0 0 418.348 0 0 0 418.348)
(418.273 0 0 0 418.273 0 0 0 418.273)
(418.2 0 0 0 418.2 0 0 0 418.2)
(418.126 0 0 0 418.126 0 0 0 418.126)
(418.052 0 0 0 418.052 0 0 0 418.052)
(417.979 0 0 0 417.979 0 0 0 417.979)
(417.905 0 0 0 417.905 0 0 0 417.905)
(417.832 0 0 0 417.832 0 0 0 417.832)
(417.759 0 0 0 417.759 0 0 0 417.759)
(417.686 0 0 0 417.686 0 0 0 417.686)
(417.613 0 0 0 417.613 0 0 0 417.613)
(417.541 0 0 0 417.541 0 0 0 417.541)
(417.468 0 0 0 417.468 0 0 0 417.468)
(417.396 0 0 0 417.396 0 0 0 417.396)
(417.324 0 0 0 417.324 0 0 0 417.324)
(417.252 0 0 0 417.252 0 0 0 417.252)
(417.18 0 0 0 417.18 0 0 0 417.18)
(417.108 0 0 0 417.108 0 0 0 417.108)
(417.036 0 0 0 417.036 0 0 0 417.036)
(416.965 0 0 0 416.965 0 0 0 416.965)
(416.893 0 0 0 416.893 0 0 0 416.893)
(416.822 0 0 0 416.822 0 0 0 416.822)
(416.751 0 0 0 416.751 0 0 0 416.751)
(416.68 0 0 0 416.68 0 0 0 416.68)
(416.609 0 0 0 416.609 0 0 0 416.609)
(416.538 0 0 0 416.538 0 0 0 416.538)
(416.468 0 0 0 416.468 0 0 0 416.468)
(416.397 0 0 0 416.397 0 0 0 416.397)
(416.327 0 0 0 416.327 0 0 0 416.327)
(416.257 0 0 0 416.257 0 0 0 416.257)
(416.187 0 0 0 416.187 0 0 0 416.187)
(416.117 0 0 0 416.117 0 0 0 416.117)
(416.047 0 0 0 416.047 0 0 0 416.047)
(415.978 0 0 0 415.978 0 0 0 415.978)
(415.908 0 0 0 415.908 0 0 0 415.908)
(415.839 0 0 0 415.839 0 0 0 415.839)
(415.769 0 0 0 415.769 0 0 0 415.769)
(415.7 0 0 0 415.7 0 0 0 415.7)
(415.631 0 0 0 415.631 0 0 0 415.631)
(415.562 0 0 0 415.562 0 0 0 415.562)
(415.494 0 0 0 415.494 0 0 0 415.494)
(415.425 0 0 0 415.425 0 0 0 415.425)
(415.357 0 0 0 415.357 0 0 0 415.357)
(415.288 0 0 0 415.288 0 0 0 415.288)
(415.22 0 0 0 415.22 0 0 0 415.22)
(415.152 0 0 0 415.152 0 0 0 415.152)
(415.084 0 0 0 415.084 0 0 0 415.084)
(415.016 0 0 0 415.016 0 0 0 415.016)
(414.948 0 0 0 414.948 0 0 0 414.948)
(414.881 0 0 0 414.881 0 0 0 414.881)
(414.813 0 0 0 414.813 0 0 0 414.813)
(414.746 0 0 0 414.746 0 0 0 414.746)
(414.679 0 0 0 414.679 0 0 0 414.679)
(414.611 0 0 0 414.611 0 0 0 414.611)
(414.544 0 0 0 414.544 0 0 0 414.544)
(414.477 0 0 0 414.477 0 0 0 414.477)
(414.411 0 0 0 414.411 0 0 0 414.411)
(414.344 0 0 0 414.344 0 0 0 414.344)
(414.277 0 0 0 414.277 0 0 0 414.277)
(414.211 0 0 0 414.211 0 0 0 414.211)
(414.145 0 0 0 414.145 0 0 0 414.145)
(414.078 0 0 0 414.078 0 0 0 414.078)
(414.012 0 0 0 414.012 0 0 0 414.012)
(413.946 0 0 0 413.946 0 0 0 413.946)
(413.88 0 0 0 413.88 0 0 0 413.88)
(413.815 0 0 0 413.815 0 0 0 413.815)
(413.749 0 0 0 413.749 0 0 0 413.749)
(413.683 0 0 0 413.683 0 0 0 413.683)
(413.618 0 0 0 413.618 0 0 0 413.618)
)
;

boundaryField
{
    inlet
    {
        type            zeroGradient;
    }
    outlet
    {
        type            zeroGradient;
    }
    fixedWalls
    {
        type            zeroGradient;
    }
}


// ************************************************************************* //
