/*--------------------------------*- C++ -*----------------------------------*\
| =========                 |                                                 |
| \\      /  F ield         | OpenFOAM: The Open Source CFD Toolbox           |
|  \\    /   O peration     | Version:  2406                                  |
|   \\  /    A nd           | Website:  www.openfoam.com                      |
|    \\/     M anipulation  |                                                 |
\*---------------------------------------------------------------------------*/
FoamFile
{
    version     2.0;
    format      ascii;
    arch        "LSB;label=32;scalar=64";
    class       volTensorField;
    location    "30/fluidRegion";
    object      KdTotU;
}
// * * * * * * * * * * * * * * * * * * * * * * * * * * * * * * * * * * * * * //

dimensions      [1 -2 -2 0 0 0 0];

internalField   nonuniform List<tensor> 
70
(
(539.404 0 0 0 539.404 0 0 0 539.404)
(539.367 0 0 0 539.367 0 0 0 539.367)
(539.33 0 0 0 539.33 0 0 0 539.33)
(539.294 0 0 0 539.294 0 0 0 539.294)
(539.259 0 0 0 539.259 0 0 0 539.259)
(539.225 0 0 0 539.225 0 0 0 539.225)
(539.191 0 0 0 539.191 0 0 0 539.191)
(539.158 0 0 0 539.158 0 0 0 539.158)
(539.126 0 0 0 539.126 0 0 0 539.126)
(539.095 0 0 0 539.095 0 0 0 539.095)
(539.064 0 0 0 539.064 0 0 0 539.064)
(539.034 0 0 0 539.034 0 0 0 539.034)
(539.004 0 0 0 539.004 0 0 0 539.004)
(538.975 0 0 0 538.975 0 0 0 538.975)
(538.947 0 0 0 538.947 0 0 0 538.947)
(538.92 0 0 0 538.92 0 0 0 538.92)
(538.894 0 0 0 538.894 0 0 0 538.894)
(538.868 0 0 0 538.868 0 0 0 538.868)
(538.842 0 0 0 538.842 0 0 0 538.842)
(538.818 0 0 0 538.818 0 0 0 538.818)
(538.794 0 0 0 538.794 0 0 0 538.794)
(538.771 0 0 0 538.771 0 0 0 538.771)
(538.748 0 0 0 538.748 0 0 0 538.748)
(538.727 0 0 0 538.727 0 0 0 538.727)
(538.706 0 0 0 538.706 0 0 0 538.706)
(538.685 0 0 0 538.685 0 0 0 538.685)
(538.665 0 0 0 538.665 0 0 0 538.665)
(538.646 0 0 0 538.646 0 0 0 538.646)
(538.628 0 0 0 538.628 0 0 0 538.628)
(538.61 0 0 0 538.61 0 0 0 538.61)
(538.593 0 0 0 538.593 0 0 0 538.593)
(538.577 0 0 0 538.577 0 0 0 538.577)
(538.561 0 0 0 538.561 0 0 0 538.561)
(538.546 0 0 0 538.546 0 0 0 538.546)
(538.532 0 0 0 538.532 0 0 0 538.532)
(538.519 0 0 0 538.519 0 0 0 538.519)
(538.506 0 0 0 538.506 0 0 0 538.506)
(538.493 0 0 0 538.493 0 0 0 538.493)
(538.482 0 0 0 538.482 0 0 0 538.482)
(538.471 0 0 0 538.471 0 0 0 538.471)
(538.46 0 0 0 538.46 0 0 0 538.46)
(538.451 0 0 0 538.451 0 0 0 538.451)
(538.442 0 0 0 538.442 0 0 0 538.442)
(538.433 0 0 0 538.433 0 0 0 538.433)
(538.426 0 0 0 538.426 0 0 0 538.426)
(538.419 0 0 0 538.419 0 0 0 538.419)
(538.413 0 0 0 538.413 0 0 0 538.413)
(538.407 0 0 0 538.407 0 0 0 538.407)
(538.402 0 0 0 538.402 0 0 0 538.402)
(538.397 0 0 0 538.397 0 0 0 538.397)
(538.394 0 0 0 538.394 0 0 0 538.394)
(538.391 0 0 0 538.391 0 0 0 538.391)
(538.388 0 0 0 538.388 0 0 0 538.388)
(538.386 0 0 0 538.386 0 0 0 538.386)
(538.385 0 0 0 538.385 0 0 0 538.385)
(538.385 0 0 0 538.385 0 0 0 538.385)
(538.385 0 0 0 538.385 0 0 0 538.385)
(538.386 0 0 0 538.386 0 0 0 538.386)
(538.387 0 0 0 538.387 0 0 0 538.387)
(538.389 0 0 0 538.389 0 0 0 538.389)
(538.392 0 0 0 538.392 0 0 0 538.392)
(538.395 0 0 0 538.395 0 0 0 538.395)
(538.399 0 0 0 538.399 0 0 0 538.399)
(538.404 0 0 0 538.404 0 0 0 538.404)
(538.409 0 0 0 538.409 0 0 0 538.409)
(538.415 0 0 0 538.415 0 0 0 538.415)
(538.421 0 0 0 538.421 0 0 0 538.421)
(538.428 0 0 0 538.428 0 0 0 538.428)
(538.436 0 0 0 538.436 0 0 0 538.436)
(538.445 0 0 0 538.445 0 0 0 538.445)
)
;

boundaryField
{
    inlet
    {
        type            zeroGradient;
    }
    outlet
    {
        type            zeroGradient;
    }
    fixedWalls
    {
        type            zeroGradient;
    }
}


// ************************************************************************* //
