/*--------------------------------*- C++ -*----------------------------------*\
| =========                 |                                                 |
| \\      /  F ield         | OpenFOAM: The Open Source CFD Toolbox           |
|  \\    /   O peration     | Version:  2406                                  |
|   \\  /    A nd           | Website:  www.openfoam.com                      |
|    \\/     M anipulation  |                                                 |
\*---------------------------------------------------------------------------*/
FoamFile
{
    version     2.0;
    format      ascii;
    arch        "LSB;label=32;scalar=64";
    class       volScalarField;
    location    "30/fluidRegion";
    object      p;
}
// * * * * * * * * * * * * * * * * * * * * * * * * * * * * * * * * * * * * * //

dimensions      [1 -1 -2 0 0 0 0];

internalField   nonuniform List<scalar> 
70
(
7.20164e+06
7.20145e+06
7.20126e+06
7.20107e+06
7.20088e+06
7.20069e+06
7.2005e+06
7.20031e+06
7.20012e+06
7.19993e+06
7.19974e+06
7.19955e+06
7.19936e+06
7.19917e+06
7.19898e+06
7.19879e+06
7.1986e+06
7.19841e+06
7.19822e+06
7.19803e+06
7.19784e+06
7.19765e+06
7.19746e+06
7.19727e+06
7.19708e+06
7.19689e+06
7.1967e+06
7.19651e+06
7.19632e+06
7.19613e+06
7.19594e+06
7.19576e+06
7.19557e+06
7.19538e+06
7.19519e+06
7.195e+06
7.19481e+06
7.19462e+06
7.19443e+06
7.19424e+06
7.19405e+06
7.19386e+06
7.19367e+06
7.19348e+06
7.19329e+06
7.19311e+06
7.19292e+06
7.19273e+06
7.19254e+06
7.19235e+06
7.19216e+06
7.19197e+06
7.19178e+06
7.19159e+06
7.1914e+06
7.19122e+06
7.19103e+06
7.19084e+06
7.19065e+06
7.19046e+06
7.19027e+06
7.19008e+06
7.18989e+06
7.18971e+06
7.18952e+06
7.18933e+06
7.18914e+06
7.18895e+06
7.18876e+06
7.18857e+06
)
;

boundaryField
{
    inlet
    {
        type            calculated;
        value           uniform 7.20173e+06;
    }
    outlet
    {
        type            calculated;
        value           uniform 7.18848e+06;
    }
    fixedWalls
    {
        type            calculated;
        value           nonuniform List<scalar> 
280
(
7.20164e+06
7.20145e+06
7.20126e+06
7.20107e+06
7.20088e+06
7.20069e+06
7.2005e+06
7.20031e+06
7.20012e+06
7.19993e+06
7.19974e+06
7.19955e+06
7.19936e+06
7.19917e+06
7.19898e+06
7.19879e+06
7.1986e+06
7.19841e+06
7.19822e+06
7.19803e+06
7.19784e+06
7.19765e+06
7.19746e+06
7.19727e+06
7.19708e+06
7.19689e+06
7.1967e+06
7.19651e+06
7.19632e+06
7.19613e+06
7.19594e+06
7.19576e+06
7.19557e+06
7.19538e+06
7.19519e+06
7.195e+06
7.19481e+06
7.19462e+06
7.19443e+06
7.19424e+06
7.19405e+06
7.19386e+06
7.19367e+06
7.19348e+06
7.19329e+06
7.19311e+06
7.19292e+06
7.19273e+06
7.19254e+06
7.19235e+06
7.19216e+06
7.19197e+06
7.19178e+06
7.19159e+06
7.1914e+06
7.19122e+06
7.19103e+06
7.19084e+06
7.19065e+06
7.19046e+06
7.19027e+06
7.19008e+06
7.18989e+06
7.18971e+06
7.18952e+06
7.18933e+06
7.18914e+06
7.18895e+06
7.18876e+06
7.18857e+06
7.20164e+06
7.20145e+06
7.20126e+06
7.20107e+06
7.20088e+06
7.20069e+06
7.2005e+06
7.20031e+06
7.20012e+06
7.19993e+06
7.19974e+06
7.19955e+06
7.19936e+06
7.19917e+06
7.19898e+06
7.19879e+06
7.1986e+06
7.19841e+06
7.19822e+06
7.19803e+06
7.19784e+06
7.19765e+06
7.19746e+06
7.19727e+06
7.19708e+06
7.19689e+06
7.1967e+06
7.19651e+06
7.19632e+06
7.19613e+06
7.19594e+06
7.19576e+06
7.19557e+06
7.19538e+06
7.19519e+06
7.195e+06
7.19481e+06
7.19462e+06
7.19443e+06
7.19424e+06
7.19405e+06
7.19386e+06
7.19367e+06
7.19348e+06
7.19329e+06
7.19311e+06
7.19292e+06
7.19273e+06
7.19254e+06
7.19235e+06
7.19216e+06
7.19197e+06
7.19178e+06
7.19159e+06
7.1914e+06
7.19122e+06
7.19103e+06
7.19084e+06
7.19065e+06
7.19046e+06
7.19027e+06
7.19008e+06
7.18989e+06
7.18971e+06
7.18952e+06
7.18933e+06
7.18914e+06
7.18895e+06
7.18876e+06
7.18857e+06
7.20164e+06
7.20145e+06
7.20126e+06
7.20107e+06
7.20088e+06
7.20069e+06
7.2005e+06
7.20031e+06
7.20012e+06
7.19993e+06
7.19974e+06
7.19955e+06
7.19936e+06
7.19917e+06
7.19898e+06
7.19879e+06
7.1986e+06
7.19841e+06
7.19822e+06
7.19803e+06
7.19784e+06
7.19765e+06
7.19746e+06
7.19727e+06
7.19708e+06
7.19689e+06
7.1967e+06
7.19651e+06
7.19632e+06
7.19613e+06
7.19594e+06
7.19576e+06
7.19557e+06
7.19538e+06
7.19519e+06
7.195e+06
7.19481e+06
7.19462e+06
7.19443e+06
7.19424e+06
7.19405e+06
7.19386e+06
7.19367e+06
7.19348e+06
7.19329e+06
7.19311e+06
7.19292e+06
7.19273e+06
7.19254e+06
7.19235e+06
7.19216e+06
7.19197e+06
7.19178e+06
7.19159e+06
7.1914e+06
7.19122e+06
7.19103e+06
7.19084e+06
7.19065e+06
7.19046e+06
7.19027e+06
7.19008e+06
7.18989e+06
7.18971e+06
7.18952e+06
7.18933e+06
7.18914e+06
7.18895e+06
7.18876e+06
7.18857e+06
7.20164e+06
7.20145e+06
7.20126e+06
7.20107e+06
7.20088e+06
7.20069e+06
7.2005e+06
7.20031e+06
7.20012e+06
7.19993e+06
7.19974e+06
7.19955e+06
7.19936e+06
7.19917e+06
7.19898e+06
7.19879e+06
7.1986e+06
7.19841e+06
7.19822e+06
7.19803e+06
7.19784e+06
7.19765e+06
7.19746e+06
7.19727e+06
7.19708e+06
7.19689e+06
7.1967e+06
7.19651e+06
7.19632e+06
7.19613e+06
7.19594e+06
7.19576e+06
7.19557e+06
7.19538e+06
7.19519e+06
7.195e+06
7.19481e+06
7.19462e+06
7.19443e+06
7.19424e+06
7.19405e+06
7.19386e+06
7.19367e+06
7.19348e+06
7.19329e+06
7.19311e+06
7.19292e+06
7.19273e+06
7.19254e+06
7.19235e+06
7.19216e+06
7.19197e+06
7.19178e+06
7.19159e+06
7.1914e+06
7.19122e+06
7.19103e+06
7.19084e+06
7.19065e+06
7.19046e+06
7.19027e+06
7.19008e+06
7.18989e+06
7.18971e+06
7.18952e+06
7.18933e+06
7.18914e+06
7.18895e+06
7.18876e+06
7.18857e+06
)
;
    }
}


// ************************************************************************* //
