/*--------------------------------*- C++ -*----------------------------------*\
| =========                 |                                                 |
| \\      /  F ield         | OpenFOAM: The Open Source CFD Toolbox           |
|  \\    /   O peration     | Version:  2406                                  |
|   \\  /    A nd           | Website:  www.openfoam.com                      |
|    \\/     M anipulation  |                                                 |
\*---------------------------------------------------------------------------*/
FoamFile
{
    version     2.0;
    format      ascii;
    arch        "LSB;label=32;scalar=64";
    class       volScalarField;
    location    "0.6/fluidRegion";
    object      dgdt.vapour;
}
// * * * * * * * * * * * * * * * * * * * * * * * * * * * * * * * * * * * * * //

dimensions      [0 0 -1 0 0 0 0];

internalField   nonuniform List<scalar> 
100
(
-0
-0
-0
-0
-0
0.0237239
-0.0213457
-0.00729853
0.000953151
0.000925957
0.000900915
0.000878406
0.000858351
0.000840421
0.000824326
0.000809805
0.000796629
0.000784588
0.0007735
0.000763198
0.000753535
0.000744377
0.000735609
0.000727126
0.000718837
0.000710657
0.000702508
0.000694308
0.000685969
0.000677277
-0
-0
-0
-0
-0
-0
-0
-0
-0
-0
-0
-7.4644e-22
-1.04999e-20
-1.63224e-20
-2.89009e-20
-4.24731e-20
-5.79573e-20
-6.6412e-20
-7.22354e-20
-1.0057e-19
-1.29502e-19
-1.62938e-19
-2.03157e-19
-2.48876e-19
-2.96596e-19
-3.44424e-19
-3.91537e-19
-4.37184e-19
-4.80686e-19
-5.21399e-19
-5.59344e-19
-5.92232e-19
-6.17755e-19
-6.42635e-19
-6.64783e-19
0.000136938
0.179541
0.345105
0.501899
0.651035
0.792907
0.929253
1.06136
1.19014
1.31623
1.44008
1.56195
1.68198
1.80017
1.91639
2.03046
2.14212
2.25104
2.35687
2.45926
2.55782
2.68571
2.79645
2.87449
2.93648
2.98886
3.03464
3.05139
3.05943
3.06694
3.07411
3.0811
3.08761
3.09883
3.05106
)
;

boundaryField
{
    inlet
    {
        type            calculated;
        value           uniform -0;
    }
    outlet
    {
        type            calculated;
        value           uniform 0.000677277;
    }
    fixedWalls
    {
        type            calculated;
        value           nonuniform List<scalar> 
400
(
-0
-0
-0
-0
-0
-0
-0
-0
-0
-0
-0
-0
-0
-0
-0
-0
-7.4644e-22
-1.04999e-20
-1.63224e-20
-2.89009e-20
-4.24731e-20
-5.79573e-20
-6.6412e-20
-7.22354e-20
-1.0057e-19
-1.29502e-19
-1.62938e-19
-2.03157e-19
-2.48876e-19
-2.96596e-19
-3.44424e-19
-3.91537e-19
-4.37184e-19
-4.80686e-19
-5.21399e-19
-5.59344e-19
-5.92232e-19
-6.17755e-19
-6.42635e-19
-6.64783e-19
0.000136938
0.179541
0.345105
0.501899
0.651035
0.792907
0.929253
1.06136
1.19014
1.31623
1.44008
1.56195
1.68198
1.80017
1.91639
2.03046
2.14212
2.25104
2.35687
2.45926
2.55782
2.68571
2.79645
2.87449
2.93648
2.98886
3.03464
3.05139
3.05943
3.06694
3.07411
3.0811
3.08761
3.09883
3.05106
0.0237239
-0.0213457
-0.00729853
0.000953151
0.000925957
0.000900915
0.000878406
0.000858351
0.000840421
0.000824326
0.000809805
0.000796629
0.000784588
0.0007735
0.000763198
0.000753535
0.000744377
0.000735609
0.000727126
0.000718837
0.000710657
0.000702508
0.000694308
0.000685969
0.000677277
-0
-0
-0
-0
-0
-0
-0
-0
-0
-0
-0
-0
-0
-0
-0
-0
-7.4644e-22
-1.04999e-20
-1.63224e-20
-2.89009e-20
-4.24731e-20
-5.79573e-20
-6.6412e-20
-7.22354e-20
-1.0057e-19
-1.29502e-19
-1.62938e-19
-2.03157e-19
-2.48876e-19
-2.96596e-19
-3.44424e-19
-3.91537e-19
-4.37184e-19
-4.80686e-19
-5.21399e-19
-5.59344e-19
-5.92232e-19
-6.17755e-19
-6.42635e-19
-6.64783e-19
0.000136938
0.179541
0.345105
0.501899
0.651035
0.792907
0.929253
1.06136
1.19014
1.31623
1.44008
1.56195
1.68198
1.80017
1.91639
2.03046
2.14212
2.25104
2.35687
2.45926
2.55782
2.68571
2.79645
2.87449
2.93648
2.98886
3.03464
3.05139
3.05943
3.06694
3.07411
3.0811
3.08761
3.09883
3.05106
0.0237239
-0.0213457
-0.00729853
0.000953151
0.000925957
0.000900915
0.000878406
0.000858351
0.000840421
0.000824326
0.000809805
0.000796629
0.000784588
0.0007735
0.000763198
0.000753535
0.000744377
0.000735609
0.000727126
0.000718837
0.000710657
0.000702508
0.000694308
0.000685969
0.000677277
-0
-0
-0
-0
-0
-0
-0
-0
-0
-0
-0
-0
-0
-0
-0
-0
-7.4644e-22
-1.04999e-20
-1.63224e-20
-2.89009e-20
-4.24731e-20
-5.79573e-20
-6.6412e-20
-7.22354e-20
-1.0057e-19
-1.29502e-19
-1.62938e-19
-2.03157e-19
-2.48876e-19
-2.96596e-19
-3.44424e-19
-3.91537e-19
-4.37184e-19
-4.80686e-19
-5.21399e-19
-5.59344e-19
-5.92232e-19
-6.17755e-19
-6.42635e-19
-6.64783e-19
0.000136938
0.179541
0.345105
0.501899
0.651035
0.792907
0.929253
1.06136
1.19014
1.31623
1.44008
1.56195
1.68198
1.80017
1.91639
2.03046
2.14212
2.25104
2.35687
2.45926
2.55782
2.68571
2.79645
2.87449
2.93648
2.98886
3.03464
3.05139
3.05943
3.06694
3.07411
3.0811
3.08761
3.09883
3.05106
0.0237239
-0.0213457
-0.00729853
0.000953151
0.000925957
0.000900915
0.000878406
0.000858351
0.000840421
0.000824326
0.000809805
0.000796629
0.000784588
0.0007735
0.000763198
0.000753535
0.000744377
0.000735609
0.000727126
0.000718837
0.000710657
0.000702508
0.000694308
0.000685969
0.000677277
-0
-0
-0
-0
-0
-0
-0
-0
-0
-0
-0
-0
-0
-0
-0
-0
-7.4644e-22
-1.04999e-20
-1.63224e-20
-2.89009e-20
-4.24731e-20
-5.79573e-20
-6.6412e-20
-7.22354e-20
-1.0057e-19
-1.29502e-19
-1.62938e-19
-2.03157e-19
-2.48876e-19
-2.96596e-19
-3.44424e-19
-3.91537e-19
-4.37184e-19
-4.80686e-19
-5.21399e-19
-5.59344e-19
-5.92232e-19
-6.17755e-19
-6.42635e-19
-6.64783e-19
0.000136938
0.179541
0.345105
0.501899
0.651035
0.792907
0.929253
1.06136
1.19014
1.31623
1.44008
1.56195
1.68198
1.80017
1.91639
2.03046
2.14212
2.25104
2.35687
2.45926
2.55782
2.68571
2.79645
2.87449
2.93648
2.98886
3.03464
3.05139
3.05943
3.06694
3.07411
3.0811
3.08761
3.09883
3.05106
0.0237239
-0.0213457
-0.00729853
0.000953151
0.000925957
0.000900915
0.000878406
0.000858351
0.000840421
0.000824326
0.000809805
0.000796629
0.000784588
0.0007735
0.000763198
0.000753535
0.000744377
0.000735609
0.000727126
0.000718837
0.000710657
0.000702508
0.000694308
0.000685969
0.000677277
)
;
    }
}


// ************************************************************************* //
