/*--------------------------------*- C++ -*----------------------------------*\
| =========                 |                                                 |
| \\      /  F ield         | OpenFOAM: The Open Source CFD Toolbox           |
|  \\    /   O peration     | Version:  2406                                  |
|   \\  /    A nd           | Website:  www.openfoam.com                      |
|    \\/     M anipulation  |                                                 |
\*---------------------------------------------------------------------------*/
FoamFile
{
    version     2.0;
    format      ascii;
    arch        "LSB;label=32;scalar=64";
    class       volTensorField;
    location    "0.6/fluidRegion";
    object      Kd.liquid.structure;
}
// * * * * * * * * * * * * * * * * * * * * * * * * * * * * * * * * * * * * * //

dimensions      [1 -3 -1 0 0 0 0];

internalField   nonuniform List<tensor> 
100
(
(1136.21 0 0 0 1136.21 0 0 0 1136.21)
(1136.21 0 0 0 1136.21 0 0 0 1136.21)
(1136.2 0 0 0 1136.2 0 0 0 1136.2)
(1136.2 0 0 0 1136.2 0 0 0 1136.2)
(1136.2 0 0 0 1136.2 0 0 0 1136.2)
(0 0 0 0 0 0 0 0 0)
(0 0 0 0 0 0 0 0 0)
(0 0 0 0 0 0 0 0 0)
(0 0 0 0 0 0 0 0 0)
(0 0 0 0 0 0 0 0 0)
(0 0 0 0 0 0 0 0 0)
(0 0 0 0 0 0 0 0 0)
(0 0 0 0 0 0 0 0 0)
(0 0 0 0 0 0 0 0 0)
(0 0 0 0 0 0 0 0 0)
(0 0 0 0 0 0 0 0 0)
(0 0 0 0 0 0 0 0 0)
(0 0 0 0 0 0 0 0 0)
(0 0 0 0 0 0 0 0 0)
(0 0 0 0 0 0 0 0 0)
(0 0 0 0 0 0 0 0 0)
(0 0 0 0 0 0 0 0 0)
(0 0 0 0 0 0 0 0 0)
(0 0 0 0 0 0 0 0 0)
(0 0 0 0 0 0 0 0 0)
(0 0 0 0 0 0 0 0 0)
(0 0 0 0 0 0 0 0 0)
(0 0 0 0 0 0 0 0 0)
(0 0 0 0 0 0 0 0 0)
(0 0 0 0 0 0 0 0 0)
(1134.6 0 0 0 1134.6 0 0 0 1134.6)
(1133.86 0 0 0 1133.86 0 0 0 1133.86)
(1133.11 0 0 0 1133.11 0 0 0 1133.11)
(1132.36 0 0 0 1132.36 0 0 0 1132.36)
(1131.62 0 0 0 1131.62 0 0 0 1131.62)
(1130.87 0 0 0 1130.87 0 0 0 1130.87)
(1130.11 0 0 0 1130.11 0 0 0 1130.11)
(1129.36 0 0 0 1129.36 0 0 0 1129.36)
(1128.6 0 0 0 1128.6 0 0 0 1128.6)
(1127.85 0 0 0 1127.85 0 0 0 1127.85)
(1127.09 0 0 0 1127.09 0 0 0 1127.09)
(1126.33 0 0 0 1126.33 0 0 0 1126.33)
(1125.57 0 0 0 1125.57 0 0 0 1125.57)
(1124.8 0 0 0 1124.8 0 0 0 1124.8)
(1124.04 0 0 0 1124.04 0 0 0 1124.04)
(1123.27 0 0 0 1123.27 0 0 0 1123.27)
(1122.5 0 0 0 1122.5 0 0 0 1122.5)
(1121.73 0 0 0 1121.73 0 0 0 1121.73)
(1120.95 0 0 0 1120.95 0 0 0 1120.95)
(1120.18 0 0 0 1120.18 0 0 0 1120.18)
(1119.4 0 0 0 1119.4 0 0 0 1119.4)
(1118.62 0 0 0 1118.62 0 0 0 1118.62)
(1117.84 0 0 0 1117.84 0 0 0 1117.84)
(1117.06 0 0 0 1117.06 0 0 0 1117.06)
(1116.28 0 0 0 1116.28 0 0 0 1116.28)
(1115.49 0 0 0 1115.49 0 0 0 1115.49)
(1114.7 0 0 0 1114.7 0 0 0 1114.7)
(1113.92 0 0 0 1113.92 0 0 0 1113.92)
(1113.12 0 0 0 1113.12 0 0 0 1113.12)
(1112.33 0 0 0 1112.33 0 0 0 1112.33)
(1111.54 0 0 0 1111.54 0 0 0 1111.54)
(1110.74 0 0 0 1110.74 0 0 0 1110.74)
(1109.95 0 0 0 1109.95 0 0 0 1109.95)
(1109.15 0 0 0 1109.15 0 0 0 1109.15)
(1108.35 0 0 0 1108.35 0 0 0 1108.35)
(1107.54 0 0 0 1107.54 0 0 0 1107.54)
(1134.7 0 0 0 1134.7 0 0 0 1134.7)
(1181.99 0 0 0 1181.99 0 0 0 1181.99)
(1244.67 0 0 0 1244.67 0 0 0 1244.67)
(1319.61 0 0 0 1319.61 0 0 0 1319.61)
(1406.28 0 0 0 1406.28 0 0 0 1406.28)
(1503.17 0 0 0 1503.17 0 0 0 1503.17)
(1608.98 0 0 0 1608.98 0 0 0 1608.98)
(1722.71 0 0 0 1722.71 0 0 0 1722.71)
(1843.5 0 0 0 1843.5 0 0 0 1843.5)
(1970.58 0 0 0 1970.58 0 0 0 1970.58)
(2103.29 0 0 0 2103.29 0 0 0 2103.29)
(2241.01 0 0 0 2241.01 0 0 0 2241.01)
(2383.18 0 0 0 2383.18 0 0 0 2383.18)
(2529.25 0 0 0 2529.25 0 0 0 2529.25)
(2678.73 0 0 0 2678.73 0 0 0 2678.73)
(2831.14 0 0 0 2831.14 0 0 0 2831.14)
(2986.01 0 0 0 2986.01 0 0 0 2986.01)
(3142.91 0 0 0 3142.91 0 0 0 3142.91)
(3301.41 0 0 0 3301.41 0 0 0 3301.41)
(3461.16 0 0 0 3461.16 0 0 0 3461.16)
(3623.33 0 0 0 3623.33 0 0 0 3623.33)
(3787.26 0 0 0 3787.26 0 0 0 3787.26)
(3951.12 0 0 0 3951.12 0 0 0 3951.12)
(4113.78 0 0 0 4113.78 0 0 0 4113.78)
(4274.71 0 0 0 4274.71 0 0 0 4274.71)
(4433.64 0 0 0 4433.64 0 0 0 4433.64)
(4589.51 0 0 0 4589.51 0 0 0 4589.51)
(4741.86 0 0 0 4741.86 0 0 0 4741.86)
(4890.78 0 0 0 4890.78 0 0 0 4890.78)
(5036.49 0 0 0 5036.49 0 0 0 5036.49)
(5179.14 0 0 0 5179.14 0 0 0 5179.14)
(5319.26 0 0 0 5319.26 0 0 0 5319.26)
(5453.96 0 0 0 5453.96 0 0 0 5453.96)
(5415.93 0 0 0 5415.93 0 0 0 5415.93)
)
;

boundaryField
{
    inlet
    {
        type            zeroGradient;
    }
    outlet
    {
        type            zeroGradient;
    }
    fixedWalls
    {
        type            zeroGradient;
    }
}


// ************************************************************************* //
