/*--------------------------------*- C++ -*----------------------------------*\
| =========                 |                                                 |
| \\      /  F ield         | OpenFOAM: The Open Source CFD Toolbox           |
|  \\    /   O peration     | Version:  2406                                  |
|   \\  /    A nd           | Website:  www.openfoam.com                      |
|    \\/     M anipulation  |                                                 |
\*---------------------------------------------------------------------------*/
FoamFile
{
    version     2.0;
    format      ascii;
    arch        "LSB;label=32;scalar=64";
    class       volTensorField;
    location    "0.6/fluidRegion";
    object      KdTotU;
}
// * * * * * * * * * * * * * * * * * * * * * * * * * * * * * * * * * * * * * //

dimensions      [1 -2 -2 0 0 0 0];

internalField   nonuniform List<tensor> 
100
(
(5075.55 0 0 0 5075.55 0 0 0 5075.55)
(5075.51 0 0 0 5075.51 0 0 0 5075.51)
(5075.48 0 0 0 5075.48 0 0 0 5075.48)
(5075.44 0 0 0 5075.44 0 0 0 5075.44)
(5075.4 0 0 0 5075.4 0 0 0 5075.4)
(0 0 0 0 0 0 0 0 0)
(0 0 0 0 0 0 0 0 0)
(0 0 0 0 0 0 0 0 0)
(0 0 0 0 0 0 0 0 0)
(0 0 0 0 0 0 0 0 0)
(0 0 0 0 0 0 0 0 0)
(0 0 0 0 0 0 0 0 0)
(0 0 0 0 0 0 0 0 0)
(0 0 0 0 0 0 0 0 0)
(0 0 0 0 0 0 0 0 0)
(0 0 0 0 0 0 0 0 0)
(0 0 0 0 0 0 0 0 0)
(0 0 0 0 0 0 0 0 0)
(0 0 0 0 0 0 0 0 0)
(0 0 0 0 0 0 0 0 0)
(0 0 0 0 0 0 0 0 0)
(0 0 0 0 0 0 0 0 0)
(0 0 0 0 0 0 0 0 0)
(0 0 0 0 0 0 0 0 0)
(0 0 0 0 0 0 0 0 0)
(0 0 0 0 0 0 0 0 0)
(0 0 0 0 0 0 0 0 0)
(0 0 0 0 0 0 0 0 0)
(0 0 0 0 0 0 0 0 0)
(0 0 0 0 0 0 0 0 0)
(5073.36 0 0 0 5073.36 0 0 0 5073.36)
(5080.25 0 0 0 5080.25 0 0 0 5080.25)
(5087.2 0 0 0 5087.2 0 0 0 5087.2)
(5094.21 0 0 0 5094.21 0 0 0 5094.21)
(5101.27 0 0 0 5101.27 0 0 0 5101.27)
(5108.38 0 0 0 5108.38 0 0 0 5108.38)
(5115.54 0 0 0 5115.54 0 0 0 5115.54)
(5122.76 0 0 0 5122.76 0 0 0 5122.76)
(5130.02 0 0 0 5130.02 0 0 0 5130.02)
(5137.33 0 0 0 5137.33 0 0 0 5137.33)
(5144.69 0 0 0 5144.69 0 0 0 5144.69)
(5152.1 0 0 0 5152.1 0 0 0 5152.1)
(5159.55 0 0 0 5159.55 0 0 0 5159.55)
(5167.05 0 0 0 5167.05 0 0 0 5167.05)
(5174.59 0 0 0 5174.59 0 0 0 5174.59)
(5182.17 0 0 0 5182.17 0 0 0 5182.17)
(5189.79 0 0 0 5189.79 0 0 0 5189.79)
(5197.46 0 0 0 5197.46 0 0 0 5197.46)
(5205.16 0 0 0 5205.16 0 0 0 5205.16)
(5212.9 0 0 0 5212.9 0 0 0 5212.9)
(5220.68 0 0 0 5220.68 0 0 0 5220.68)
(5228.49 0 0 0 5228.49 0 0 0 5228.49)
(5236.34 0 0 0 5236.34 0 0 0 5236.34)
(5244.22 0 0 0 5244.22 0 0 0 5244.22)
(5252.13 0 0 0 5252.13 0 0 0 5252.13)
(5260.07 0 0 0 5260.07 0 0 0 5260.07)
(5268.05 0 0 0 5268.05 0 0 0 5268.05)
(5276.06 0 0 0 5276.06 0 0 0 5276.06)
(5284.09 0 0 0 5284.09 0 0 0 5284.09)
(5292.16 0 0 0 5292.16 0 0 0 5292.16)
(5300.25 0 0 0 5300.25 0 0 0 5300.25)
(5308.37 0 0 0 5308.37 0 0 0 5308.37)
(5316.51 0 0 0 5316.51 0 0 0 5316.51)
(5324.68 0 0 0 5324.68 0 0 0 5324.68)
(5332.87 0 0 0 5332.87 0 0 0 5332.87)
(5341.07 0 0 0 5341.07 0 0 0 5341.07)
(5488.3 0 0 0 5488.3 0 0 0 5488.3)
(5741.23 0 0 0 5741.23 0 0 0 5741.23)
(6077.85 0 0 0 6077.85 0 0 0 6077.85)
(6484.24 0 0 0 6484.24 0 0 0 6484.24)
(6958.96 0 0 0 6958.96 0 0 0 6958.96)
(7496.24 0 0 0 7496.24 0 0 0 7496.24)
(8091.34 0 0 0 8091.34 0 0 0 8091.34)
(8740.9 0 0 0 8740.9 0 0 0 8740.9)
(9442.18 0 0 0 9442.18 0 0 0 9442.18)
(10192.9 0 0 0 10192.9 0 0 0 10192.9)
(10991.1 0 0 0 10991.1 0 0 0 10991.1)
(11835 0 0 0 11835 0 0 0 11835)
(12722.7 0 0 0 12722.7 0 0 0 12722.7)
(13652.7 0 0 0 13652.7 0 0 0 13652.7)
(14623.1 0 0 0 14623.1 0 0 0 14623.1)
(15632.1 0 0 0 15632.1 0 0 0 15632.1)
(16677.9 0 0 0 16677.9 0 0 0 16677.9)
(17758.5 0 0 0 17758.5 0 0 0 17758.5)
(18871.7 0 0 0 18871.7 0 0 0 18871.7)
(20015.6 0 0 0 20015.6 0 0 0 20015.6)
(21198.4 0 0 0 21198.4 0 0 0 21198.4)
(22416.7 0 0 0 22416.7 0 0 0 22416.7)
(23658.1 0 0 0 23658.1 0 0 0 23658.1)
(24913.7 0 0 0 24913.7 0 0 0 24913.7)
(26178.7 0 0 0 26178.7 0 0 0 26178.7)
(27450 0 0 0 27450 0 0 0 27450)
(28718.7 0 0 0 28718.7 0 0 0 28718.7)
(29979.4 0 0 0 29979.4 0 0 0 29979.4)
(31231.3 0 0 0 31231.3 0 0 0 31231.3)
(32474.7 0 0 0 32474.7 0 0 0 32474.7)
(33708.3 0 0 0 33708.3 0 0 0 33708.3)
(34953.9 0 0 0 34953.9 0 0 0 34953.9)
(35924.9 0 0 0 35924.9 0 0 0 35924.9)
(40271.6 0 0 0 40271.6 0 0 0 40271.6)
)
;

boundaryField
{
    inlet
    {
        type            zeroGradient;
    }
    outlet
    {
        type            zeroGradient;
    }
    fixedWalls
    {
        type            zeroGradient;
    }
}


// ************************************************************************* //
