/*--------------------------------*- C++ -*----------------------------------*\
| =========                 |                                                 |
| \\      /  F ield         | OpenFOAM: The Open Source CFD Toolbox           |
|  \\    /   O peration     | Version:  2406                                  |
|   \\  /    A nd           | Website:  www.openfoam.com                      |
|    \\/     M anipulation  |                                                 |
\*---------------------------------------------------------------------------*/
FoamFile
{
    version     2.0;
    format      ascii;
    arch        "LSB;label=32;scalar=64";
    class       volScalarField;
    location    "0.6/fluidRegion";
    object      p;
}
// * * * * * * * * * * * * * * * * * * * * * * * * * * * * * * * * * * * * * //

dimensions      [1 -1 -2 0 0 0 0];

internalField   nonuniform List<scalar> 
100
(
1.47672e+07
1.4767e+07
1.47667e+07
1.47665e+07
1.47663e+07
1.47141e+07
1.47182e+07
1.47198e+07
1.47198e+07
1.47198e+07
1.47198e+07
1.47198e+07
1.47198e+07
1.47198e+07
1.47198e+07
1.47198e+07
1.47198e+07
1.47198e+07
1.47198e+07
1.47198e+07
1.47198e+07
1.47198e+07
1.47198e+07
1.47198e+07
1.47198e+07
1.47198e+07
1.47198e+07
1.47198e+07
1.47198e+07
1.47198e+07
1.4766e+07
1.47657e+07
1.47655e+07
1.47652e+07
1.47649e+07
1.47646e+07
1.47643e+07
1.4764e+07
1.47638e+07
1.47635e+07
1.47632e+07
1.47629e+07
1.47626e+07
1.47623e+07
1.4762e+07
1.47618e+07
1.47615e+07
1.47612e+07
1.47609e+07
1.47606e+07
1.47603e+07
1.476e+07
1.47598e+07
1.47595e+07
1.47592e+07
1.47589e+07
1.47586e+07
1.47583e+07
1.4758e+07
1.47577e+07
1.47575e+07
1.47572e+07
1.47569e+07
1.47566e+07
1.47563e+07
1.4756e+07
1.47557e+07
1.47554e+07
1.4755e+07
1.47547e+07
1.47542e+07
1.47538e+07
1.47533e+07
1.47527e+07
1.47521e+07
1.47515e+07
1.47508e+07
1.475e+07
1.47492e+07
1.47484e+07
1.47474e+07
1.47465e+07
1.47454e+07
1.47443e+07
1.47432e+07
1.4742e+07
1.47407e+07
1.47393e+07
1.47379e+07
1.47364e+07
1.47349e+07
1.47332e+07
1.47316e+07
1.47298e+07
1.4728e+07
1.47261e+07
1.47242e+07
1.47222e+07
1.47201e+07
1.47182e+07
)
;

boundaryField
{
    inlet
    {
        type            calculated;
        value           uniform 1.47673e+07;
    }
    outlet
    {
        type            calculated;
        value           uniform 1.47198e+07;
    }
    fixedWalls
    {
        type            calculated;
        value           nonuniform List<scalar> 
400
(
1.47672e+07
1.4767e+07
1.47667e+07
1.47665e+07
1.47663e+07
1.4766e+07
1.47657e+07
1.47655e+07
1.47652e+07
1.47649e+07
1.47646e+07
1.47643e+07
1.4764e+07
1.47638e+07
1.47635e+07
1.47632e+07
1.47629e+07
1.47626e+07
1.47623e+07
1.4762e+07
1.47618e+07
1.47615e+07
1.47612e+07
1.47609e+07
1.47606e+07
1.47603e+07
1.476e+07
1.47598e+07
1.47595e+07
1.47592e+07
1.47589e+07
1.47586e+07
1.47583e+07
1.4758e+07
1.47577e+07
1.47575e+07
1.47572e+07
1.47569e+07
1.47566e+07
1.47563e+07
1.4756e+07
1.47557e+07
1.47554e+07
1.4755e+07
1.47547e+07
1.47542e+07
1.47538e+07
1.47533e+07
1.47527e+07
1.47521e+07
1.47515e+07
1.47508e+07
1.475e+07
1.47492e+07
1.47484e+07
1.47474e+07
1.47465e+07
1.47454e+07
1.47443e+07
1.47432e+07
1.4742e+07
1.47407e+07
1.47393e+07
1.47379e+07
1.47364e+07
1.47349e+07
1.47332e+07
1.47316e+07
1.47298e+07
1.4728e+07
1.47261e+07
1.47242e+07
1.47222e+07
1.47201e+07
1.47182e+07
1.47141e+07
1.47182e+07
1.47198e+07
1.47198e+07
1.47198e+07
1.47198e+07
1.47198e+07
1.47198e+07
1.47198e+07
1.47198e+07
1.47198e+07
1.47198e+07
1.47198e+07
1.47198e+07
1.47198e+07
1.47198e+07
1.47198e+07
1.47198e+07
1.47198e+07
1.47198e+07
1.47198e+07
1.47198e+07
1.47198e+07
1.47198e+07
1.47198e+07
1.47672e+07
1.4767e+07
1.47667e+07
1.47665e+07
1.47663e+07
1.4766e+07
1.47657e+07
1.47655e+07
1.47652e+07
1.47649e+07
1.47646e+07
1.47643e+07
1.4764e+07
1.47638e+07
1.47635e+07
1.47632e+07
1.47629e+07
1.47626e+07
1.47623e+07
1.4762e+07
1.47618e+07
1.47615e+07
1.47612e+07
1.47609e+07
1.47606e+07
1.47603e+07
1.476e+07
1.47598e+07
1.47595e+07
1.47592e+07
1.47589e+07
1.47586e+07
1.47583e+07
1.4758e+07
1.47577e+07
1.47575e+07
1.47572e+07
1.47569e+07
1.47566e+07
1.47563e+07
1.4756e+07
1.47557e+07
1.47554e+07
1.4755e+07
1.47547e+07
1.47542e+07
1.47538e+07
1.47533e+07
1.47527e+07
1.47521e+07
1.47515e+07
1.47508e+07
1.475e+07
1.47492e+07
1.47484e+07
1.47474e+07
1.47465e+07
1.47454e+07
1.47443e+07
1.47432e+07
1.4742e+07
1.47407e+07
1.47393e+07
1.47379e+07
1.47364e+07
1.47349e+07
1.47332e+07
1.47316e+07
1.47298e+07
1.4728e+07
1.47261e+07
1.47242e+07
1.47222e+07
1.47201e+07
1.47182e+07
1.47141e+07
1.47182e+07
1.47198e+07
1.47198e+07
1.47198e+07
1.47198e+07
1.47198e+07
1.47198e+07
1.47198e+07
1.47198e+07
1.47198e+07
1.47198e+07
1.47198e+07
1.47198e+07
1.47198e+07
1.47198e+07
1.47198e+07
1.47198e+07
1.47198e+07
1.47198e+07
1.47198e+07
1.47198e+07
1.47198e+07
1.47198e+07
1.47198e+07
1.47672e+07
1.4767e+07
1.47667e+07
1.47665e+07
1.47663e+07
1.4766e+07
1.47657e+07
1.47655e+07
1.47652e+07
1.47649e+07
1.47646e+07
1.47643e+07
1.4764e+07
1.47638e+07
1.47635e+07
1.47632e+07
1.47629e+07
1.47626e+07
1.47623e+07
1.4762e+07
1.47618e+07
1.47615e+07
1.47612e+07
1.47609e+07
1.47606e+07
1.47603e+07
1.476e+07
1.47598e+07
1.47595e+07
1.47592e+07
1.47589e+07
1.47586e+07
1.47583e+07
1.4758e+07
1.47577e+07
1.47575e+07
1.47572e+07
1.47569e+07
1.47566e+07
1.47563e+07
1.4756e+07
1.47557e+07
1.47554e+07
1.4755e+07
1.47547e+07
1.47542e+07
1.47538e+07
1.47533e+07
1.47527e+07
1.47521e+07
1.47515e+07
1.47508e+07
1.475e+07
1.47492e+07
1.47484e+07
1.47474e+07
1.47465e+07
1.47454e+07
1.47443e+07
1.47432e+07
1.4742e+07
1.47407e+07
1.47393e+07
1.47379e+07
1.47364e+07
1.47349e+07
1.47332e+07
1.47316e+07
1.47298e+07
1.4728e+07
1.47261e+07
1.47242e+07
1.47222e+07
1.47201e+07
1.47182e+07
1.47141e+07
1.47182e+07
1.47198e+07
1.47198e+07
1.47198e+07
1.47198e+07
1.47198e+07
1.47198e+07
1.47198e+07
1.47198e+07
1.47198e+07
1.47198e+07
1.47198e+07
1.47198e+07
1.47198e+07
1.47198e+07
1.47198e+07
1.47198e+07
1.47198e+07
1.47198e+07
1.47198e+07
1.47198e+07
1.47198e+07
1.47198e+07
1.47198e+07
1.47672e+07
1.4767e+07
1.47667e+07
1.47665e+07
1.47663e+07
1.4766e+07
1.47657e+07
1.47655e+07
1.47652e+07
1.47649e+07
1.47646e+07
1.47643e+07
1.4764e+07
1.47638e+07
1.47635e+07
1.47632e+07
1.47629e+07
1.47626e+07
1.47623e+07
1.4762e+07
1.47618e+07
1.47615e+07
1.47612e+07
1.47609e+07
1.47606e+07
1.47603e+07
1.476e+07
1.47598e+07
1.47595e+07
1.47592e+07
1.47589e+07
1.47586e+07
1.47583e+07
1.4758e+07
1.47577e+07
1.47575e+07
1.47572e+07
1.47569e+07
1.47566e+07
1.47563e+07
1.4756e+07
1.47557e+07
1.47554e+07
1.4755e+07
1.47547e+07
1.47542e+07
1.47538e+07
1.47533e+07
1.47527e+07
1.47521e+07
1.47515e+07
1.47508e+07
1.475e+07
1.47492e+07
1.47484e+07
1.47474e+07
1.47465e+07
1.47454e+07
1.47443e+07
1.47432e+07
1.4742e+07
1.47407e+07
1.47393e+07
1.47379e+07
1.47364e+07
1.47349e+07
1.47332e+07
1.47316e+07
1.47298e+07
1.4728e+07
1.47261e+07
1.47242e+07
1.47222e+07
1.47201e+07
1.47182e+07
1.47141e+07
1.47182e+07
1.47198e+07
1.47198e+07
1.47198e+07
1.47198e+07
1.47198e+07
1.47198e+07
1.47198e+07
1.47198e+07
1.47198e+07
1.47198e+07
1.47198e+07
1.47198e+07
1.47198e+07
1.47198e+07
1.47198e+07
1.47198e+07
1.47198e+07
1.47198e+07
1.47198e+07
1.47198e+07
1.47198e+07
1.47198e+07
1.47198e+07
)
;
    }
}


// ************************************************************************* //
