/*--------------------------------*- C++ -*----------------------------------*\
| =========                 |                                                 |
| \\      /  F ield         | OpenFOAM: The Open Source CFD Toolbox           |
|  \\    /   O peration     | Version:  2406                                  |
|   \\  /    A nd           | Website:  www.openfoam.com                      |
|    \\/     M anipulation  |                                                 |
\*---------------------------------------------------------------------------*/
FoamFile
{
    version     2.0;
    format      ascii;
    arch        "LSB;label=32;scalar=64";
    class       surfaceScalarField;
    location    "0.6/fluidRegion";
    object      phi.vapour;
}
// * * * * * * * * * * * * * * * * * * * * * * * * * * * * * * * * * * * * * //

dimensions      [0 3 -1 0 0 0 0];

oriented        oriented;

internalField   nonuniform List<scalar> 
99
(
0.000709196
0.000709193
0.00070919
0.000709187
0.000709184
0.000572731
-0.00131799
0.000572663
0.00057264
0.000572643
0.000572645
0.000572648
0.00057265
0.000572653
0.000572655
0.000572658
0.00057266
0.000572662
0.000572664
0.000572666
0.000572669
0.000572671
0.000572673
0.000572675
0.000572677
0.000572679
0.000572681
0.000572683
0.000572685
0.000572687
0.000710611
0.000712048
0.000713495
0.000714953
0.000716422
0.0007179
0.000719389
0.000720889
0.000722398
0.000723917
0.000725446
0.000726984
0.000728532
0.00073009
0.000731657
0.000733233
0.000734818
0.000736412
0.000738015
0.000739627
0.000741247
0.000742875
0.000744512
0.000746157
0.000747811
0.000749472
0.000751141
0.000752818
0.000754502
0.000756194
0.000757893
0.000759599
0.000761312
0.000763032
0.000764687
0.000767847
0.000868822
0.000905001
0.000925121
0.00094919
0.000973957
0.000998515
0.00102306
0.00104782
0.00107299
0.00109872
0.00112509
0.00115218
0.00118003
0.00120867
0.00123809
0.0012683
0.00129929
0.00133104
0.00136354
0.00139665
0.00143091
0.0014661
0.00150178
0.00153776
0.00157396
0.00161037
0.00164666
0.00168275
0.00171866
0.00175439
0.00179036
0.00182116
0.00192032
)
;

boundaryField
{
    inlet
    {
        type            calculated;
        value           uniform -0.000709199;
    }
    outlet
    {
        type            calculated;
        value           uniform 0.000572688;
    }
    fixedWalls
    {
        type            fixedValue;
        value           uniform 0;
    }
}


// ************************************************************************* //
