/*--------------------------------*- C++ -*----------------------------------*\
| =========                 |                                                 |
| \\      /  F ield         | OpenFOAM: The Open Source CFD Toolbox           |
|  \\    /   O peration     | Version:  2406                                  |
|   \\  /    A nd           | Website:  www.openfoam.com                      |
|    \\/     M anipulation  |                                                 |
\*---------------------------------------------------------------------------*/
FoamFile
{
    version     2.0;
    format      ascii;
    arch        "LSB;label=32;scalar=64";
    class       volTensorField;
    location    "30/fluidRegion";
    object      Kd.liquid.structure;
}
// * * * * * * * * * * * * * * * * * * * * * * * * * * * * * * * * * * * * * //

dimensions      [1 -3 -1 0 0 0 0];

internalField   nonuniform List<tensor> 
75
(
(418.518 0 0 0 418.518 0 0 0 418.518)
(418.518 0 0 0 418.518 0 0 0 418.518)
(418.518 0 0 0 418.518 0 0 0 418.518)
(418.518 0 0 0 418.518 0 0 0 418.518)
(418.518 0 0 0 418.518 0 0 0 418.518)
(418.29 0 0 0 418.29 0 0 0 418.29)
(418.105 0 0 0 418.105 0 0 0 418.105)
(417.92 0 0 0 417.92 0 0 0 417.92)
(417.737 0 0 0 417.737 0 0 0 417.737)
(417.554 0 0 0 417.554 0 0 0 417.554)
(417.372 0 0 0 417.372 0 0 0 417.372)
(417.191 0 0 0 417.191 0 0 0 417.191)
(417.011 0 0 0 417.011 0 0 0 417.011)
(416.832 0 0 0 416.832 0 0 0 416.832)
(416.654 0 0 0 416.654 0 0 0 416.654)
(416.477 0 0 0 416.477 0 0 0 416.477)
(416.3 0 0 0 416.3 0 0 0 416.3)
(416.124 0 0 0 416.124 0 0 0 416.124)
(415.95 0 0 0 415.95 0 0 0 415.95)
(415.776 0 0 0 415.776 0 0 0 415.776)
(415.602 0 0 0 415.602 0 0 0 415.602)
(415.43 0 0 0 415.43 0 0 0 415.43)
(415.258 0 0 0 415.258 0 0 0 415.258)
(415.087 0 0 0 415.087 0 0 0 415.087)
(414.917 0 0 0 414.917 0 0 0 414.917)
(414.748 0 0 0 414.748 0 0 0 414.748)
(414.579 0 0 0 414.579 0 0 0 414.579)
(414.411 0 0 0 414.411 0 0 0 414.411)
(414.244 0 0 0 414.244 0 0 0 414.244)
(414.078 0 0 0 414.078 0 0 0 414.078)
(413.912 0 0 0 413.912 0 0 0 413.912)
(413.747 0 0 0 413.747 0 0 0 413.747)
(413.582 0 0 0 413.582 0 0 0 413.582)
(413.419 0 0 0 413.419 0 0 0 413.419)
(413.256 0 0 0 413.256 0 0 0 413.256)
(413.094 0 0 0 413.094 0 0 0 413.094)
(412.932 0 0 0 412.932 0 0 0 412.932)
(412.771 0 0 0 412.771 0 0 0 412.771)
(412.611 0 0 0 412.611 0 0 0 412.611)
(412.451 0 0 0 412.451 0 0 0 412.451)
(412.292 0 0 0 412.292 0 0 0 412.292)
(412.134 0 0 0 412.134 0 0 0 412.134)
(411.976 0 0 0 411.976 0 0 0 411.976)
(411.819 0 0 0 411.819 0 0 0 411.819)
(411.662 0 0 0 411.662 0 0 0 411.662)
(411.506 0 0 0 411.506 0 0 0 411.506)
(411.351 0 0 0 411.351 0 0 0 411.351)
(411.196 0 0 0 411.196 0 0 0 411.196)
(412.878 0 0 0 412.878 0 0 0 412.878)
(418.456 0 0 0 418.456 0 0 0 418.456)
(427.455 0 0 0 427.455 0 0 0 427.455)
(439.199 0 0 0 439.199 0 0 0 439.199)
(453.452 0 0 0 453.452 0 0 0 453.452)
(470.082 0 0 0 470.082 0 0 0 470.082)
(488.997 0 0 0 488.997 0 0 0 488.997)
(510.137 0 0 0 510.137 0 0 0 510.137)
(533.459 0 0 0 533.459 0 0 0 533.459)
(558.923 0 0 0 558.923 0 0 0 558.923)
(586.486 0 0 0 586.486 0 0 0 586.486)
(616.095 0 0 0 616.095 0 0 0 616.095)
(647.681 0 0 0 647.681 0 0 0 647.681)
(681.158 0 0 0 681.158 0 0 0 681.158)
(716.415 0 0 0 716.415 0 0 0 716.415)
(753.322 0 0 0 753.322 0 0 0 753.322)
(791.725 0 0 0 791.725 0 0 0 791.725)
(831.395 0 0 0 831.395 0 0 0 831.395)
(871.595 0 0 0 871.595 0 0 0 871.595)
(912.163 0 0 0 912.163 0 0 0 912.163)
(953.135 0 0 0 953.135 0 0 0 953.135)
(994.511 0 0 0 994.511 0 0 0 994.511)
(1036.25 0 0 0 1036.25 0 0 0 1036.25)
(1078.28 0 0 0 1078.28 0 0 0 1078.28)
(1120.51 0 0 0 1120.51 0 0 0 1120.51)
(1162.86 0 0 0 1162.86 0 0 0 1162.86)
(1202.63 0 0 0 1202.63 0 0 0 1202.63)
)
;

boundaryField
{
    inlet
    {
        type            zeroGradient;
    }
    outlet
    {
        type            zeroGradient;
    }
    fixedWalls
    {
        type            zeroGradient;
    }
}


// ************************************************************************* //
