/*--------------------------------*- C++ -*----------------------------------*\
| =========                 |                                                 |
| \\      /  F ield         | OpenFOAM: The Open Source CFD Toolbox           |
|  \\    /   O peration     | Version:  2406                                  |
|   \\  /    A nd           | Website:  www.openfoam.com                      |
|    \\/     M anipulation  |                                                 |
\*---------------------------------------------------------------------------*/
FoamFile
{
    version     2.0;
    format      ascii;
    arch        "LSB;label=32;scalar=64";
    class       volScalarField;
    location    "30/fluidRegion";
    object      alphaRhoMagU.vapour;
}
// * * * * * * * * * * * * * * * * * * * * * * * * * * * * * * * * * * * * * //

dimensions      [1 -2 -1 0 0 0 0];

internalField   nonuniform List<scalar> 
70
(
0
0
0.0470177
0.162694
0.321946
0.531199
0.792004
1.11167
1.49913
1.96549
2.52342
3.18666
3.96919
4.88419
5.94265
7.15166
8.51823
10.1121
11.8469
13.6574
15.5158
17.4022
19.3035
21.2163
23.1396
25.0729
27.0159
28.968
30.9292
32.8991
34.8776
36.8643
38.8592
40.8623
42.8756
44.8998
46.9346
48.9799
51.0355
53.1011
55.1764
57.2609
59.3565
61.4433
63.4991
65.5495
67.5987
69.6485
71.6995
73.7523
75.8074
77.8652
79.9258
81.9896
84.0568
86.1276
88.202
90.2801
92.362
94.4476
96.5371
98.6305
100.728
102.829
104.933
107.042
109.151
111.279
113.35
115.649
)
;

boundaryField
{
    inlet
    {
        type            calculated;
        value           uniform 0;
    }
    outlet
    {
        type            calculated;
        value           uniform 115.641;
    }
    fixedWalls
    {
        type            calculated;
        value           nonuniform List<scalar> 
280
(
0
0
0.0470177
0.162694
0.321946
0.531199
0.792004
1.11167
1.49913
1.96549
2.52342
3.18666
3.96919
4.88419
5.94265
7.15166
8.51823
10.1121
11.8469
13.6574
15.5158
17.4022
19.3035
21.2163
23.1396
25.0729
27.0159
28.968
30.9292
32.8991
34.8776
36.8643
38.8592
40.8623
42.8756
44.8998
46.9346
48.9799
51.0355
53.1011
55.1764
57.2609
59.3565
61.4433
63.4991
65.5495
67.5987
69.6485
71.6995
73.7523
75.8074
77.8652
79.9258
81.9896
84.0568
86.1276
88.202
90.2801
92.362
94.4476
96.5371
98.6305
100.728
102.829
104.933
107.042
109.151
111.279
113.35
115.649
0
0
0.0470177
0.162694
0.321946
0.531199
0.792004
1.11167
1.49913
1.96549
2.52342
3.18666
3.96919
4.88419
5.94265
7.15166
8.51823
10.1121
11.8469
13.6574
15.5158
17.4022
19.3035
21.2163
23.1396
25.0729
27.0159
28.968
30.9292
32.8991
34.8776
36.8643
38.8592
40.8623
42.8756
44.8998
46.9346
48.9799
51.0355
53.1011
55.1764
57.2609
59.3565
61.4433
63.4991
65.5495
67.5987
69.6485
71.6995
73.7523
75.8074
77.8652
79.9258
81.9896
84.0568
86.1276
88.202
90.2801
92.362
94.4476
96.5371
98.6305
100.728
102.829
104.933
107.042
109.151
111.279
113.35
115.649
0
0
0.0470177
0.162694
0.321946
0.531199
0.792004
1.11167
1.49913
1.96549
2.52342
3.18666
3.96919
4.88419
5.94265
7.15166
8.51823
10.1121
11.8469
13.6574
15.5158
17.4022
19.3035
21.2163
23.1396
25.0729
27.0159
28.968
30.9292
32.8991
34.8776
36.8643
38.8592
40.8623
42.8756
44.8998
46.9346
48.9799
51.0355
53.1011
55.1764
57.2609
59.3565
61.4433
63.4991
65.5495
67.5987
69.6485
71.6995
73.7523
75.8074
77.8652
79.9258
81.9896
84.0568
86.1276
88.202
90.2801
92.362
94.4476
96.5371
98.6305
100.728
102.829
104.933
107.042
109.151
111.279
113.35
115.649
0
0
0.0470177
0.162694
0.321946
0.531199
0.792004
1.11167
1.49913
1.96549
2.52342
3.18666
3.96919
4.88419
5.94265
7.15166
8.51823
10.1121
11.8469
13.6574
15.5158
17.4022
19.3035
21.2163
23.1396
25.0729
27.0159
28.968
30.9292
32.8991
34.8776
36.8643
38.8592
40.8623
42.8756
44.8998
46.9346
48.9799
51.0355
53.1011
55.1764
57.2609
59.3565
61.4433
63.4991
65.5495
67.5987
69.6485
71.6995
73.7523
75.8074
77.8652
79.9258
81.9896
84.0568
86.1276
88.202
90.2801
92.362
94.4476
96.5371
98.6305
100.728
102.829
104.933
107.042
109.151
111.279
113.35
115.649
)
;
    }
}


// ************************************************************************* //
