/*--------------------------------*- C++ -*----------------------------------*\
| =========                 |                                                 |
| \\      /  F ield         | OpenFOAM: The Open Source CFD Toolbox           |
|  \\    /   O peration     | Version:  2406                                  |
|   \\  /    A nd           | Website:  www.openfoam.com                      |
|    \\/     M anipulation  |                                                 |
\*---------------------------------------------------------------------------*/
FoamFile
{
    version     2.0;
    format      ascii;
    arch        "LSB;label=32;scalar=64";
    class       volScalarField;
    location    "30/fluidRegion";
    object      dgdt.vapour;
}
// * * * * * * * * * * * * * * * * * * * * * * * * * * * * * * * * * * * * * //

dimensions      [0 0 -1 0 0 0 0];

internalField   nonuniform List<scalar> 
70
(
-0
-0
0.0944913
0.179332
0.259885
0.338278
0.423439
0.519921
0.631811
0.762443
0.914576
1.09007
1.28939
1.51105
1.75106
2.00284
2.25719
2.67381
2.86754
2.97259
3.04605
3.08377
3.10306
3.12006
3.13572
3.15053
3.16476
3.17856
3.19202
3.20519
3.2181
3.23075
3.24315
3.2558
3.27315
3.29032
3.30724
3.32387
3.34017
3.3561
3.37163
3.38673
3.40139
3.41558
3.36826
3.34439
3.33551
3.33281
3.33337
3.33592
3.33977
3.34454
3.34997
3.35589
3.36219
3.36876
3.37555
3.38249
3.38955
3.39669
3.40389
3.41111
3.41834
3.42557
3.43278
3.43994
3.44714
3.454
3.46185
3.48001
)
;

boundaryField
{
    inlet
    {
        type            calculated;
        value           uniform -0;
    }
    outlet
    {
        type            calculated;
        value           uniform 3.48001;
    }
    fixedWalls
    {
        type            calculated;
        value           nonuniform List<scalar> 
280
(
-0
-0
0.0944913
0.179332
0.259885
0.338278
0.423439
0.519921
0.631811
0.762443
0.914576
1.09007
1.28939
1.51105
1.75106
2.00284
2.25719
2.67381
2.86754
2.97259
3.04605
3.08377
3.10306
3.12006
3.13572
3.15053
3.16476
3.17856
3.19202
3.20519
3.2181
3.23075
3.24315
3.2558
3.27315
3.29032
3.30724
3.32387
3.34017
3.3561
3.37163
3.38673
3.40139
3.41558
3.36826
3.34439
3.33551
3.33281
3.33337
3.33592
3.33977
3.34454
3.34997
3.35589
3.36219
3.36876
3.37555
3.38249
3.38955
3.39669
3.40389
3.41111
3.41834
3.42557
3.43278
3.43994
3.44714
3.454
3.46185
3.48001
-0
-0
0.0944913
0.179332
0.259885
0.338278
0.423439
0.519921
0.631811
0.762443
0.914576
1.09007
1.28939
1.51105
1.75106
2.00284
2.25719
2.67381
2.86754
2.97259
3.04605
3.08377
3.10306
3.12006
3.13572
3.15053
3.16476
3.17856
3.19202
3.20519
3.2181
3.23075
3.24315
3.2558
3.27315
3.29032
3.30724
3.32387
3.34017
3.3561
3.37163
3.38673
3.40139
3.41558
3.36826
3.34439
3.33551
3.33281
3.33337
3.33592
3.33977
3.34454
3.34997
3.35589
3.36219
3.36876
3.37555
3.38249
3.38955
3.39669
3.40389
3.41111
3.41834
3.42557
3.43278
3.43994
3.44714
3.454
3.46185
3.48001
-0
-0
0.0944913
0.179332
0.259885
0.338278
0.423439
0.519921
0.631811
0.762443
0.914576
1.09007
1.28939
1.51105
1.75106
2.00284
2.25719
2.67381
2.86754
2.97259
3.04605
3.08377
3.10306
3.12006
3.13572
3.15053
3.16476
3.17856
3.19202
3.20519
3.2181
3.23075
3.24315
3.2558
3.27315
3.29032
3.30724
3.32387
3.34017
3.3561
3.37163
3.38673
3.40139
3.41558
3.36826
3.34439
3.33551
3.33281
3.33337
3.33592
3.33977
3.34454
3.34997
3.35589
3.36219
3.36876
3.37555
3.38249
3.38955
3.39669
3.40389
3.41111
3.41834
3.42557
3.43278
3.43994
3.44714
3.454
3.46185
3.48001
-0
-0
0.0944913
0.179332
0.259885
0.338278
0.423439
0.519921
0.631811
0.762443
0.914576
1.09007
1.28939
1.51105
1.75106
2.00284
2.25719
2.67381
2.86754
2.97259
3.04605
3.08377
3.10306
3.12006
3.13572
3.15053
3.16476
3.17856
3.19202
3.20519
3.2181
3.23075
3.24315
3.2558
3.27315
3.29032
3.30724
3.32387
3.34017
3.3561
3.37163
3.38673
3.40139
3.41558
3.36826
3.34439
3.33551
3.33281
3.33337
3.33592
3.33977
3.34454
3.34997
3.35589
3.36219
3.36876
3.37555
3.38249
3.38955
3.39669
3.40389
3.41111
3.41834
3.42557
3.43278
3.43994
3.44714
3.454
3.46185
3.48001
)
;
    }
}


// ************************************************************************* //
