/*--------------------------------*- C++ -*----------------------------------*\
| =========                 |                                                 |
| \\      /  F ield         | OpenFOAM: The Open Source CFD Toolbox           |
|  \\    /   O peration     | Version:  2406                                  |
|   \\  /    A nd           | Website:  www.openfoam.com                      |
|    \\/     M anipulation  |                                                 |
\*---------------------------------------------------------------------------*/
FoamFile
{
    version     2.0;
    format      ascii;
    arch        "LSB;label=32;scalar=64";
    class       volTensorField;
    location    "30/fluidRegion";
    object      Kd.liquid.structure;
}
// * * * * * * * * * * * * * * * * * * * * * * * * * * * * * * * * * * * * * //

dimensions      [1 -3 -1 0 0 0 0];

internalField   nonuniform List<tensor> 
70
(
(417.601 0 0 0 417.601 0 0 0 417.601)
(416.864 0 0 0 416.864 0 0 0 416.864)
(426.163 0 0 0 426.163 0 0 0 426.163)
(446.637 0 0 0 446.637 0 0 0 446.637)
(472.304 0 0 0 472.304 0 0 0 472.304)
(503.915 0 0 0 503.915 0 0 0 503.915)
(541.139 0 0 0 541.139 0 0 0 541.139)
(584.453 0 0 0 584.453 0 0 0 584.453)
(634.392 0 0 0 634.392 0 0 0 634.392)
(691.594 0 0 0 691.594 0 0 0 691.594)
(756.68 0 0 0 756.68 0 0 0 756.68)
(830.172 0 0 0 830.172 0 0 0 830.172)
(912.398 0 0 0 912.398 0 0 0 912.398)
(1003.41 0 0 0 1003.41 0 0 0 1003.41)
(1102.89 0 0 0 1102.89 0 0 0 1102.89)
(1210.12 0 0 0 1210.12 0 0 0 1210.12)
(1324.19 0 0 0 1324.19 0 0 0 1324.19)
(1449.3 0 0 0 1449.3 0 0 0 1449.3)
(1578.06 0 0 0 1578.06 0 0 0 1578.06)
(1704.83 0 0 0 1704.83 0 0 0 1704.83)
(1827.86 0 0 0 1827.86 0 0 0 1827.86)
(1946.45 0 0 0 1946.45 0 0 0 1946.45)
(2060.36 0 0 0 2060.36 0 0 0 2060.36)
(2169.96 0 0 0 2169.96 0 0 0 2169.96)
(2275.73 0 0 0 2275.73 0 0 0 2275.73)
(2378.11 0 0 0 2378.11 0 0 0 2378.11)
(2477.45 0 0 0 2477.45 0 0 0 2477.45)
(2574.09 0 0 0 2574.09 0 0 0 2574.09)
(2668.28 0 0 0 2668.28 0 0 0 2668.28)
(2760.28 0 0 0 2760.28 0 0 0 2760.28)
(2850.29 0 0 0 2850.29 0 0 0 2850.29)
(2938.5 0 0 0 2938.5 0 0 0 2938.5)
(3025.05 0 0 0 3025.05 0 0 0 3025.05)
(3110.11 0 0 0 3110.11 0 0 0 3110.11)
(3193.88 0 0 0 3193.88 0 0 0 3193.88)
(3276.5 0 0 0 3276.5 0 0 0 3276.5)
(3358.09 0 0 0 3358.09 0 0 0 3358.09)
(3438.72 0 0 0 3438.72 0 0 0 3438.72)
(3518.48 0 0 0 3518.48 0 0 0 3518.48)
(3597.43 0 0 0 3597.43 0 0 0 3597.43)
(3675.63 0 0 0 3675.63 0 0 0 3675.63)
(3753.15 0 0 0 3753.15 0 0 0 3753.15)
(3829.93 0 0 0 3829.93 0 0 0 3829.93)
(3906.96 0 0 0 3906.96 0 0 0 3906.96)
(4040.14 0 0 0 4040.14 0 0 0 4040.14)
(4191.8 0 0 0 4191.8 0 0 0 4191.8)
(4344.17 0 0 0 4344.17 0 0 0 4344.17)
(4497.7 0 0 0 4497.7 0 0 0 4497.7)
(4652.62 0 0 0 4652.62 0 0 0 4652.62)
(4809.1 0 0 0 4809.1 0 0 0 4809.1)
(4967.21 0 0 0 4967.21 0 0 0 4967.21)
(5127.02 0 0 0 5127.02 0 0 0 5127.02)
(5288.58 0 0 0 5288.58 0 0 0 5288.58)
(5451.91 0 0 0 5451.91 0 0 0 5451.91)
(5617.05 0 0 0 5617.05 0 0 0 5617.05)
(5784.02 0 0 0 5784.02 0 0 0 5784.02)
(5952.84 0 0 0 5952.84 0 0 0 5952.84)
(6123.53 0 0 0 6123.53 0 0 0 6123.53)
(6296.11 0 0 0 6296.11 0 0 0 6296.11)
(6470.6 0 0 0 6470.6 0 0 0 6470.6)
(6647.01 0 0 0 6647.01 0 0 0 6647.01)
(6825.36 0 0 0 6825.36 0 0 0 6825.36)
(7005.67 0 0 0 7005.67 0 0 0 7005.67)
(7187.96 0 0 0 7187.96 0 0 0 7187.96)
(7372.17 0 0 0 7372.17 0 0 0 7372.17)
(7558.68 0 0 0 7558.68 0 0 0 7558.68)
(7746.1 0 0 0 7746.1 0 0 0 7746.1)
(7939.74 0 0 0 7939.74 0 0 0 7939.74)
(8119.94 0 0 0 8119.94 0 0 0 8119.94)
(8359.33 0 0 0 8359.33 0 0 0 8359.33)
)
;

boundaryField
{
    inlet
    {
        type            zeroGradient;
    }
    outlet
    {
        type            zeroGradient;
    }
    fixedWalls
    {
        type            zeroGradient;
    }
}


// ************************************************************************* //
