/*--------------------------------*- C++ -*----------------------------------*\
| =========                 |                                                 |
| \\      /  F ield         | OpenFOAM: The Open Source CFD Toolbox           |
|  \\    /   O peration     | Version:  2406                                  |
|   \\  /    A nd           | Website:  www.openfoam.com                      |
|    \\/     M anipulation  |                                                 |
\*---------------------------------------------------------------------------*/
FoamFile
{
    version     2.0;
    format      ascii;
    arch        "LSB;label=32;scalar=64";
    class       volTensorField;
    location    "30/fluidRegion";
    object      KdTotU;
}
// * * * * * * * * * * * * * * * * * * * * * * * * * * * * * * * * * * * * * //

dimensions      [1 -2 -2 0 0 0 0];

internalField   nonuniform List<tensor> 
70
(
(538.619 0 0 0 538.619 0 0 0 538.619)
(538.301 0 0 0 538.301 0 0 0 538.301)
(551.503 0 0 0 551.503 0 0 0 551.503)
(580.155 0 0 0 580.155 0 0 0 580.155)
(616.502 0 0 0 616.502 0 0 0 616.502)
(661.714 0 0 0 661.714 0 0 0 661.714)
(715.666 0 0 0 715.666 0 0 0 715.666)
(779.4 0 0 0 779.4 0 0 0 779.4)
(854.174 0 0 0 854.174 0 0 0 854.174)
(941.546 0 0 0 941.546 0 0 0 941.546)
(1043.23 0 0 0 1043.23 0 0 0 1043.23)
(1161.02 0 0 0 1161.02 0 0 0 1161.02)
(1296.63 0 0 0 1296.63 0 0 0 1296.63)
(1451.52 0 0 0 1451.52 0 0 0 1451.52)
(1626.76 0 0 0 1626.76 0 0 0 1626.76)
(1822.73 0 0 0 1822.73 0 0 0 1822.73)
(2039.6 0 0 0 2039.6 0 0 0 2039.6)
(2286.41 0 0 0 2286.41 0 0 0 2286.41)
(2552.09 0 0 0 2552.09 0 0 0 2552.09)
(2825.06 0 0 0 2825.06 0 0 0 2825.06)
(3100.83 0 0 0 3100.83 0 0 0 3100.83)
(3376.69 0 0 0 3376.69 0 0 0 3376.69)
(3650.84 0 0 0 3650.84 0 0 0 3650.84)
(3922.83 0 0 0 3922.83 0 0 0 3922.83)
(4192.74 0 0 0 4192.74 0 0 0 4192.74)
(4460.64 0 0 0 4460.64 0 0 0 4460.64)
(4726.61 0 0 0 4726.61 0 0 0 4726.61)
(4990.72 0 0 0 4990.72 0 0 0 4990.72)
(5253.04 0 0 0 5253.04 0 0 0 5253.04)
(5513.61 0 0 0 5513.61 0 0 0 5513.61)
(5772.48 0 0 0 5772.48 0 0 0 5772.48)
(6029.69 0 0 0 6029.69 0 0 0 6029.69)
(6285.25 0 0 0 6285.25 0 0 0 6285.25)
(6539.23 0 0 0 6539.23 0 0 0 6539.23)
(6791.86 0 0 0 6791.86 0 0 0 6791.86)
(7043.31 0 0 0 7043.31 0 0 0 7043.31)
(7293.57 0 0 0 7293.57 0 0 0 7293.57)
(7542.65 0 0 0 7542.65 0 0 0 7542.65)
(7790.52 0 0 0 7790.52 0 0 0 7790.52)
(8037.17 0 0 0 8037.17 0 0 0 8037.17)
(8282.58 0 0 0 8282.58 0 0 0 8282.58)
(8526.73 0 0 0 8526.73 0 0 0 8526.73)
(8769.6 0 0 0 8769.6 0 0 0 8769.6)
(9011.05 0 0 0 9011.05 0 0 0 9011.05)
(9375.51 0 0 0 9375.51 0 0 0 9375.51)
(9776.37 0 0 0 9776.37 0 0 0 9776.37)
(10175.3 0 0 0 10175.3 0 0 0 10175.3)
(10574.8 0 0 0 10574.8 0 0 0 10574.8)
(10976.1 0 0 0 10976.1 0 0 0 10976.1)
(11379.8 0 0 0 11379.8 0 0 0 11379.8)
(11786.1 0 0 0 11786.1 0 0 0 11786.1)
(12195.1 0 0 0 12195.1 0 0 0 12195.1)
(12606.8 0 0 0 12606.8 0 0 0 12606.8)
(13021.3 0 0 0 13021.3 0 0 0 13021.3)
(13438.3 0 0 0 13438.3 0 0 0 13438.3)
(13857.9 0 0 0 13857.9 0 0 0 13857.9)
(14280 0 0 0 14280 0 0 0 14280)
(14704.3 0 0 0 14704.3 0 0 0 14704.3)
(15130.9 0 0 0 15130.9 0 0 0 15130.9)
(15559.7 0 0 0 15559.7 0 0 0 15559.7)
(15990.4 0 0 0 15990.4 0 0 0 15990.4)
(16423.1 0 0 0 16423.1 0 0 0 16423.1)
(16857.6 0 0 0 16857.6 0 0 0 16857.6)
(17293.8 0 0 0 17293.8 0 0 0 17293.8)
(17731.5 0 0 0 17731.5 0 0 0 17731.5)
(18171.6 0 0 0 18171.6 0 0 0 18171.6)
(18609.8 0 0 0 18609.8 0 0 0 18609.8)
(19061.6 0 0 0 19061.6 0 0 0 19061.6)
(19469.4 0 0 0 19469.4 0 0 0 19469.4)
(20044.4 0 0 0 20044.4 0 0 0 20044.4)
)
;

boundaryField
{
    inlet
    {
        type            zeroGradient;
    }
    outlet
    {
        type            zeroGradient;
    }
    fixedWalls
    {
        type            zeroGradient;
    }
}


// ************************************************************************* //
