/*--------------------------------*- C++ -*----------------------------------*\
| =========                 |                                                 |
| \\      /  F ield         | OpenFOAM: The Open Source CFD Toolbox           |
|  \\    /   O peration     | Version:  2406                                  |
|   \\  /    A nd           | Website:  www.openfoam.com                      |
|    \\/     M anipulation  |                                                 |
\*---------------------------------------------------------------------------*/
FoamFile
{
    version     2.0;
    format      ascii;
    arch        "LSB;label=32;scalar=64";
    class       volScalarField;
    location    "30/fluidRegion";
    object      p;
}
// * * * * * * * * * * * * * * * * * * * * * * * * * * * * * * * * * * * * * //

dimensions      [1 -1 -2 0 0 0 0];

internalField   nonuniform List<scalar> 
70
(
7.23429e+06
7.2341e+06
7.23391e+06
7.23371e+06
7.23352e+06
7.23332e+06
7.23312e+06
7.23291e+06
7.23271e+06
7.2325e+06
7.23228e+06
7.23206e+06
7.23183e+06
7.2316e+06
7.23136e+06
7.23111e+06
7.23085e+06
7.23057e+06
7.23029e+06
7.22999e+06
7.22969e+06
7.22937e+06
7.22904e+06
7.22871e+06
7.22836e+06
7.22801e+06
7.22765e+06
7.22727e+06
7.22689e+06
7.22649e+06
7.22609e+06
7.22568e+06
7.22525e+06
7.22482e+06
7.22437e+06
7.22392e+06
7.22345e+06
7.22298e+06
7.22249e+06
7.22199e+06
7.22149e+06
7.22097e+06
7.22044e+06
7.2199e+06
7.21935e+06
7.21878e+06
7.21819e+06
7.21759e+06
7.21697e+06
7.21633e+06
7.21567e+06
7.215e+06
7.2143e+06
7.21359e+06
7.21286e+06
7.21211e+06
7.21133e+06
7.21054e+06
7.20973e+06
7.2089e+06
7.20805e+06
7.20718e+06
7.20629e+06
7.20538e+06
7.20445e+06
7.20349e+06
7.20252e+06
7.20153e+06
7.20051e+06
7.19947e+06
)
;

boundaryField
{
    inlet
    {
        type            calculated;
        value           uniform 7.23438e+06;
    }
    outlet
    {
        type            calculated;
        value           uniform 7.19894e+06;
    }
    fixedWalls
    {
        type            calculated;
        value           nonuniform List<scalar> 
280
(
7.23429e+06
7.2341e+06
7.23391e+06
7.23371e+06
7.23352e+06
7.23332e+06
7.23312e+06
7.23291e+06
7.23271e+06
7.2325e+06
7.23228e+06
7.23206e+06
7.23183e+06
7.2316e+06
7.23136e+06
7.23111e+06
7.23085e+06
7.23057e+06
7.23029e+06
7.22999e+06
7.22969e+06
7.22937e+06
7.22904e+06
7.22871e+06
7.22836e+06
7.22801e+06
7.22765e+06
7.22727e+06
7.22689e+06
7.22649e+06
7.22609e+06
7.22568e+06
7.22525e+06
7.22482e+06
7.22437e+06
7.22392e+06
7.22345e+06
7.22298e+06
7.22249e+06
7.22199e+06
7.22149e+06
7.22097e+06
7.22044e+06
7.2199e+06
7.21935e+06
7.21878e+06
7.21819e+06
7.21759e+06
7.21697e+06
7.21633e+06
7.21567e+06
7.215e+06
7.2143e+06
7.21359e+06
7.21286e+06
7.21211e+06
7.21133e+06
7.21054e+06
7.20973e+06
7.2089e+06
7.20805e+06
7.20718e+06
7.20629e+06
7.20538e+06
7.20445e+06
7.20349e+06
7.20252e+06
7.20153e+06
7.20051e+06
7.19947e+06
7.23429e+06
7.2341e+06
7.23391e+06
7.23371e+06
7.23352e+06
7.23332e+06
7.23312e+06
7.23291e+06
7.23271e+06
7.2325e+06
7.23228e+06
7.23206e+06
7.23183e+06
7.2316e+06
7.23136e+06
7.23111e+06
7.23085e+06
7.23057e+06
7.23029e+06
7.22999e+06
7.22969e+06
7.22937e+06
7.22904e+06
7.22871e+06
7.22836e+06
7.22801e+06
7.22765e+06
7.22727e+06
7.22689e+06
7.22649e+06
7.22609e+06
7.22568e+06
7.22525e+06
7.22482e+06
7.22437e+06
7.22392e+06
7.22345e+06
7.22298e+06
7.22249e+06
7.22199e+06
7.22149e+06
7.22097e+06
7.22044e+06
7.2199e+06
7.21935e+06
7.21878e+06
7.21819e+06
7.21759e+06
7.21697e+06
7.21633e+06
7.21567e+06
7.215e+06
7.2143e+06
7.21359e+06
7.21286e+06
7.21211e+06
7.21133e+06
7.21054e+06
7.20973e+06
7.2089e+06
7.20805e+06
7.20718e+06
7.20629e+06
7.20538e+06
7.20445e+06
7.20349e+06
7.20252e+06
7.20153e+06
7.20051e+06
7.19947e+06
7.23429e+06
7.2341e+06
7.23391e+06
7.23371e+06
7.23352e+06
7.23332e+06
7.23312e+06
7.23291e+06
7.23271e+06
7.2325e+06
7.23228e+06
7.23206e+06
7.23183e+06
7.2316e+06
7.23136e+06
7.23111e+06
7.23085e+06
7.23057e+06
7.23029e+06
7.22999e+06
7.22969e+06
7.22937e+06
7.22904e+06
7.22871e+06
7.22836e+06
7.22801e+06
7.22765e+06
7.22727e+06
7.22689e+06
7.22649e+06
7.22609e+06
7.22568e+06
7.22525e+06
7.22482e+06
7.22437e+06
7.22392e+06
7.22345e+06
7.22298e+06
7.22249e+06
7.22199e+06
7.22149e+06
7.22097e+06
7.22044e+06
7.2199e+06
7.21935e+06
7.21878e+06
7.21819e+06
7.21759e+06
7.21697e+06
7.21633e+06
7.21567e+06
7.215e+06
7.2143e+06
7.21359e+06
7.21286e+06
7.21211e+06
7.21133e+06
7.21054e+06
7.20973e+06
7.2089e+06
7.20805e+06
7.20718e+06
7.20629e+06
7.20538e+06
7.20445e+06
7.20349e+06
7.20252e+06
7.20153e+06
7.20051e+06
7.19947e+06
7.23429e+06
7.2341e+06
7.23391e+06
7.23371e+06
7.23352e+06
7.23332e+06
7.23312e+06
7.23291e+06
7.23271e+06
7.2325e+06
7.23228e+06
7.23206e+06
7.23183e+06
7.2316e+06
7.23136e+06
7.23111e+06
7.23085e+06
7.23057e+06
7.23029e+06
7.22999e+06
7.22969e+06
7.22937e+06
7.22904e+06
7.22871e+06
7.22836e+06
7.22801e+06
7.22765e+06
7.22727e+06
7.22689e+06
7.22649e+06
7.22609e+06
7.22568e+06
7.22525e+06
7.22482e+06
7.22437e+06
7.22392e+06
7.22345e+06
7.22298e+06
7.22249e+06
7.22199e+06
7.22149e+06
7.22097e+06
7.22044e+06
7.2199e+06
7.21935e+06
7.21878e+06
7.21819e+06
7.21759e+06
7.21697e+06
7.21633e+06
7.21567e+06
7.215e+06
7.2143e+06
7.21359e+06
7.21286e+06
7.21211e+06
7.21133e+06
7.21054e+06
7.20973e+06
7.2089e+06
7.20805e+06
7.20718e+06
7.20629e+06
7.20538e+06
7.20445e+06
7.20349e+06
7.20252e+06
7.20153e+06
7.20051e+06
7.19947e+06
)
;
    }
}


// ************************************************************************* //
