/*--------------------------------*- C++ -*----------------------------------*\
| =========                 |                                                 |
| \\      /  F ield         | OpenFOAM: The Open Source CFD Toolbox           |
|  \\    /   O peration     | Version:  2406                                  |
|   \\  /    A nd           | Website:  www.openfoam.com                      |
|    \\/     M anipulation  |                                                 |
\*---------------------------------------------------------------------------*/
FoamFile
{
    version     2.0;
    format      ascii;
    arch        "LSB;label=32;scalar=64";
    class       volScalarField;
    location    "16/fluidRegion";
    object      alphaRhoMagU.vapour;
}
// * * * * * * * * * * * * * * * * * * * * * * * * * * * * * * * * * * * * * //

dimensions      [1 -2 -1 0 0 0 0];

internalField   nonuniform List<scalar> 
75
(
0
0
0
0
0
0
0
0
0
0
0
0
0.107376
0.375577
0.751736
1.25065
1.87432
2.63563
3.54735
4.61896
5.84427
7.17113
8.5962
10.249
11.9919
13.7299
15.4288
17.0784
18.6739
20.2007
21.656
23.0429
24.3649
25.6256
26.8275
27.9732
29.0653
30.1063
31.0985
32.0441
32.9455
33.8046
34.624
35.4051
36.1495
36.8585
37.5338
38.1767
38.7885
39.3706
39.924
40.45
40.9496
41.4237
41.8735
42.3004
42.7051
43.0885
43.4511
43.7937
44.1168
44.4209
44.7067
44.9746
45.2251
45.4585
45.6755
45.8763
46.0614
46.231
46.3858
46.5258
46.6517
46.7633
46.8651
)
;

boundaryField
{
    inlet
    {
        type            calculated;
        value           uniform 0;
    }
    outlet
    {
        type            calculated;
        value           uniform 46.8637;
    }
    fixedWalls
    {
        type            calculated;
        value           nonuniform List<scalar> 
300
(
0
0
0
0
0
0
0
0
0
0
0
0
0.107376
0.375577
0.751736
1.25065
1.87432
2.63563
3.54735
4.61896
5.84427
7.17113
8.5962
10.249
11.9919
13.7299
15.4288
17.0784
18.6739
20.2007
21.656
23.0429
24.3649
25.6256
26.8275
27.9732
29.0653
30.1063
31.0985
32.0441
32.9455
33.8046
34.624
35.4051
36.1495
36.8585
37.5338
38.1767
38.7885
39.3706
39.924
40.45
40.9496
41.4237
41.8735
42.3004
42.7051
43.0885
43.4511
43.7937
44.1168
44.4209
44.7067
44.9746
45.2251
45.4585
45.6755
45.8763
46.0614
46.231
46.3858
46.5258
46.6517
46.7633
46.8651
0
0
0
0
0
0
0
0
0
0
0
0
0.107376
0.375577
0.751736
1.25065
1.87432
2.63563
3.54735
4.61896
5.84427
7.17113
8.5962
10.249
11.9919
13.7299
15.4288
17.0784
18.6739
20.2007
21.656
23.0429
24.3649
25.6256
26.8275
27.9732
29.0653
30.1063
31.0985
32.0441
32.9455
33.8046
34.624
35.4051
36.1495
36.8585
37.5338
38.1767
38.7885
39.3706
39.924
40.45
40.9496
41.4237
41.8735
42.3004
42.7051
43.0885
43.4511
43.7937
44.1168
44.4209
44.7067
44.9746
45.2251
45.4585
45.6755
45.8763
46.0614
46.231
46.3858
46.5258
46.6517
46.7633
46.8651
0
0
0
0
0
0
0
0
0
0
0
0
0.107376
0.375577
0.751736
1.25065
1.87432
2.63563
3.54735
4.61896
5.84427
7.17113
8.5962
10.249
11.9919
13.7299
15.4288
17.0784
18.6739
20.2007
21.656
23.0429
24.3649
25.6256
26.8275
27.9732
29.0653
30.1063
31.0985
32.0441
32.9455
33.8046
34.624
35.4051
36.1495
36.8585
37.5338
38.1767
38.7885
39.3706
39.924
40.45
40.9496
41.4237
41.8735
42.3004
42.7051
43.0885
43.4511
43.7937
44.1168
44.4209
44.7067
44.9746
45.2251
45.4585
45.6755
45.8763
46.0614
46.231
46.3858
46.5258
46.6517
46.7633
46.8651
0
0
0
0
0
0
0
0
0
0
0
0
0.107376
0.375577
0.751736
1.25065
1.87432
2.63563
3.54735
4.61896
5.84427
7.17113
8.5962
10.249
11.9919
13.7299
15.4288
17.0784
18.6739
20.2007
21.656
23.0429
24.3649
25.6256
26.8275
27.9732
29.0653
30.1063
31.0985
32.0441
32.9455
33.8046
34.624
35.4051
36.1495
36.8585
37.5338
38.1767
38.7885
39.3706
39.924
40.45
40.9496
41.4237
41.8735
42.3004
42.7051
43.0885
43.4511
43.7937
44.1168
44.4209
44.7067
44.9746
45.2251
45.4585
45.6755
45.8763
46.0614
46.231
46.3858
46.5258
46.6517
46.7633
46.8651
)
;
    }
}


// ************************************************************************* //
