/*--------------------------------*- C++ -*----------------------------------*\
| =========                 |                                                 |
| \\      /  F ield         | OpenFOAM: The Open Source CFD Toolbox           |
|  \\    /   O peration     | Version:  2406                                  |
|   \\  /    A nd           | Website:  www.openfoam.com                      |
|    \\/     M anipulation  |                                                 |
\*---------------------------------------------------------------------------*/
FoamFile
{
    version     2.0;
    format      ascii;
    arch        "LSB;label=32;scalar=64";
    class       volScalarField;
    location    "16/fluidRegion";
    object      dgdt.vapour;
}
// * * * * * * * * * * * * * * * * * * * * * * * * * * * * * * * * * * * * * //

dimensions      [0 0 -1 0 0 0 0];

internalField   nonuniform List<scalar> 
75
(
-1.15561e-233
-1.10875e-233
-1.17398e-233
-9.03065e-234
-9.13917e-234
-1.05196e-233
-7.81256e-234
-7.66795e-234
-9.40247e-234
-8.44387e-234
-9.4837e-234
-8.81766e-234
0.216711
0.420241
0.619675
0.815865
1.0251
1.25492
1.50796
1.77715
2.0369
2.18725
2.3362
2.78791
2.8699
2.8339
2.76231
2.67707
2.5865
2.46503
2.34662
2.23459
2.12858
2.02886
1.93294
1.84155
1.75453
1.67168
1.59282
1.51774
1.44629
1.3784
1.3145
1.25292
1.19379
1.13703
1.08275
1.03078
0.980972
0.9332
0.887342
0.843285
0.800926
0.760168
0.721401
0.684744
0.649308
0.615019
0.581808
0.54961
0.518363
0.488011
0.458501
0.429782
0.401812
0.374553
0.34797
0.322038
0.296734
0.272046
0.247962
0.224473
0.201555
0.179165
0.159471
)
;

boundaryField
{
    inlet
    {
        type            calculated;
        value           uniform -1.15561e-233;
    }
    outlet
    {
        type            calculated;
        value           uniform 0.159471;
    }
    fixedWalls
    {
        type            calculated;
        value           nonuniform List<scalar> 
300
(
-1.15561e-233
-1.10875e-233
-1.17398e-233
-9.03065e-234
-9.13917e-234
-1.05196e-233
-7.81256e-234
-7.66795e-234
-9.40247e-234
-8.44387e-234
-9.4837e-234
-8.81766e-234
0.216711
0.420241
0.619675
0.815865
1.0251
1.25492
1.50796
1.77715
2.0369
2.18725
2.3362
2.78791
2.8699
2.8339
2.76231
2.67707
2.5865
2.46503
2.34662
2.23459
2.12858
2.02886
1.93294
1.84155
1.75453
1.67168
1.59282
1.51774
1.44629
1.3784
1.3145
1.25292
1.19379
1.13703
1.08275
1.03078
0.980972
0.9332
0.887342
0.843285
0.800926
0.760168
0.721401
0.684744
0.649308
0.615019
0.581808
0.54961
0.518363
0.488011
0.458501
0.429782
0.401812
0.374553
0.34797
0.322038
0.296734
0.272046
0.247962
0.224473
0.201555
0.179165
0.159471
-1.15561e-233
-1.10875e-233
-1.17398e-233
-9.03065e-234
-9.13917e-234
-1.05196e-233
-7.81256e-234
-7.66795e-234
-9.40247e-234
-8.44387e-234
-9.4837e-234
-8.81766e-234
0.216711
0.420241
0.619675
0.815865
1.0251
1.25492
1.50796
1.77715
2.0369
2.18725
2.3362
2.78791
2.8699
2.8339
2.76231
2.67707
2.5865
2.46503
2.34662
2.23459
2.12858
2.02886
1.93294
1.84155
1.75453
1.67168
1.59282
1.51774
1.44629
1.3784
1.3145
1.25292
1.19379
1.13703
1.08275
1.03078
0.980972
0.9332
0.887342
0.843285
0.800926
0.760168
0.721401
0.684744
0.649308
0.615019
0.581808
0.54961
0.518363
0.488011
0.458501
0.429782
0.401812
0.374553
0.34797
0.322038
0.296734
0.272046
0.247962
0.224473
0.201555
0.179165
0.159471
-1.15561e-233
-1.10875e-233
-1.17398e-233
-9.03065e-234
-9.13917e-234
-1.05196e-233
-7.81256e-234
-7.66795e-234
-9.40247e-234
-8.44387e-234
-9.4837e-234
-8.81766e-234
0.216711
0.420241
0.619675
0.815865
1.0251
1.25492
1.50796
1.77715
2.0369
2.18725
2.3362
2.78791
2.8699
2.8339
2.76231
2.67707
2.5865
2.46503
2.34662
2.23459
2.12858
2.02886
1.93294
1.84155
1.75453
1.67168
1.59282
1.51774
1.44629
1.3784
1.3145
1.25292
1.19379
1.13703
1.08275
1.03078
0.980972
0.9332
0.887342
0.843285
0.800926
0.760168
0.721401
0.684744
0.649308
0.615019
0.581808
0.54961
0.518363
0.488011
0.458501
0.429782
0.401812
0.374553
0.34797
0.322038
0.296734
0.272046
0.247962
0.224473
0.201555
0.179165
0.159471
-1.15561e-233
-1.10875e-233
-1.17398e-233
-9.03065e-234
-9.13917e-234
-1.05196e-233
-7.81256e-234
-7.66795e-234
-9.40247e-234
-8.44387e-234
-9.4837e-234
-8.81766e-234
0.216711
0.420241
0.619675
0.815865
1.0251
1.25492
1.50796
1.77715
2.0369
2.18725
2.3362
2.78791
2.8699
2.8339
2.76231
2.67707
2.5865
2.46503
2.34662
2.23459
2.12858
2.02886
1.93294
1.84155
1.75453
1.67168
1.59282
1.51774
1.44629
1.3784
1.3145
1.25292
1.19379
1.13703
1.08275
1.03078
0.980972
0.9332
0.887342
0.843285
0.800926
0.760168
0.721401
0.684744
0.649308
0.615019
0.581808
0.54961
0.518363
0.488011
0.458501
0.429782
0.401812
0.374553
0.34797
0.322038
0.296734
0.272046
0.247962
0.224473
0.201555
0.179165
0.159471
)
;
    }
}


// ************************************************************************* //
