/*--------------------------------*- C++ -*----------------------------------*\
| =========                 |                                                 |
| \\      /  F ield         | OpenFOAM: The Open Source CFD Toolbox           |
|  \\    /   O peration     | Version:  2406                                  |
|   \\  /    A nd           | Website:  www.openfoam.com                      |
|    \\/     M anipulation  |                                                 |
\*---------------------------------------------------------------------------*/
FoamFile
{
    version     2.0;
    format      ascii;
    arch        "LSB;label=32;scalar=64";
    class       volTensorField;
    location    "16/fluidRegion";
    object      Kd.liquid.structure;
}
// * * * * * * * * * * * * * * * * * * * * * * * * * * * * * * * * * * * * * //

dimensions      [1 -3 -1 0 0 0 0];

internalField   nonuniform List<tensor> 
75
(
(418.492 0 0 0 418.492 0 0 0 418.492)
(418.492 0 0 0 418.492 0 0 0 418.492)
(418.492 0 0 0 418.492 0 0 0 418.492)
(418.492 0 0 0 418.492 0 0 0 418.492)
(418.492 0 0 0 418.492 0 0 0 418.492)
(418.341 0 0 0 418.341 0 0 0 418.341)
(418.095 0 0 0 418.095 0 0 0 418.095)
(417.762 0 0 0 417.762 0 0 0 417.762)
(417.349 0 0 0 417.349 0 0 0 417.349)
(416.861 0 0 0 416.861 0 0 0 416.861)
(416.306 0 0 0 416.306 0 0 0 416.306)
(415.69 0 0 0 415.69 0 0 0 415.69)
(435.825 0 0 0 435.825 0 0 0 435.825)
(479.611 0 0 0 479.611 0 0 0 479.611)
(534.716 0 0 0 534.716 0 0 0 534.716)
(602.148 0 0 0 602.148 0 0 0 602.148)
(680.45 0 0 0 680.45 0 0 0 680.45)
(769.545 0 0 0 769.545 0 0 0 769.545)
(869.108 0 0 0 869.108 0 0 0 869.108)
(978.349 0 0 0 978.349 0 0 0 978.349)
(1095.11 0 0 0 1095.11 0 0 0 1095.11)
(1213.64 0 0 0 1213.64 0 0 0 1213.64)
(1332.66 0 0 0 1332.66 0 0 0 1332.66)
(1461.92 0 0 0 1461.92 0 0 0 1461.92)
(1591.14 0 0 0 1591.14 0 0 0 1591.14)
(1712.96 0 0 0 1712.96 0 0 0 1712.96)
(1825.97 0 0 0 1825.97 0 0 0 1825.97)
(1930.7 0 0 0 1930.7 0 0 0 1930.7)
(2027.91 0 0 0 2027.91 0 0 0 2027.91)
(2117.68 0 0 0 2117.68 0 0 0 2117.68)
(2200.52 0 0 0 2200.52 0 0 0 2200.52)
(2277.22 0 0 0 2277.22 0 0 0 2277.22)
(2348.5 0 0 0 2348.5 0 0 0 2348.5)
(2414.94 0 0 0 2414.94 0 0 0 2414.94)
(2477.02 0 0 0 2477.02 0 0 0 2477.02)
(2535.13 0 0 0 2535.13 0 0 0 2535.13)
(2589.63 0 0 0 2589.63 0 0 0 2589.63)
(2640.81 0 0 0 2640.81 0 0 0 2640.81)
(2688.94 0 0 0 2688.94 0 0 0 2688.94)
(2734.26 0 0 0 2734.26 0 0 0 2734.26)
(2776.98 0 0 0 2776.98 0 0 0 2776.98)
(2817.3 0 0 0 2817.3 0 0 0 2817.3)
(2855.39 0 0 0 2855.39 0 0 0 2855.39)
(2891.4 0 0 0 2891.4 0 0 0 2891.4)
(2925.46 0 0 0 2925.46 0 0 0 2925.46)
(2957.68 0 0 0 2957.68 0 0 0 2957.68)
(2988.17 0 0 0 2988.17 0 0 0 2988.17)
(3017.03 0 0 0 3017.03 0 0 0 3017.03)
(3044.35 0 0 0 3044.35 0 0 0 3044.35)
(3070.22 0 0 0 3070.22 0 0 0 3070.22)
(3094.71 0 0 0 3094.71 0 0 0 3094.71)
(3117.9 0 0 0 3117.9 0 0 0 3117.9)
(3139.84 0 0 0 3139.84 0 0 0 3139.84)
(3160.6 0 0 0 3160.6 0 0 0 3160.6)
(3180.25 0 0 0 3180.25 0 0 0 3180.25)
(3198.84 0 0 0 3198.84 0 0 0 3198.84)
(3216.43 0 0 0 3216.43 0 0 0 3216.43)
(3233.07 0 0 0 3233.07 0 0 0 3233.07)
(3248.79 0 0 0 3248.79 0 0 0 3248.79)
(3263.62 0 0 0 3263.62 0 0 0 3263.62)
(3277.61 0 0 0 3277.61 0 0 0 3277.61)
(3290.78 0 0 0 3290.78 0 0 0 3290.78)
(3303.16 0 0 0 3303.16 0 0 0 3303.16)
(3314.77 0 0 0 3314.77 0 0 0 3314.77)
(3325.64 0 0 0 3325.64 0 0 0 3325.64)
(3335.79 0 0 0 3335.79 0 0 0 3335.79)
(3345.25 0 0 0 3345.25 0 0 0 3345.25)
(3354.04 0 0 0 3354.04 0 0 0 3354.04)
(3362.16 0 0 0 3362.16 0 0 0 3362.16)
(3369.65 0 0 0 3369.65 0 0 0 3369.65)
(3376.52 0 0 0 3376.52 0 0 0 3376.52)
(3382.79 0 0 0 3382.79 0 0 0 3382.79)
(3388.47 0 0 0 3388.47 0 0 0 3388.47)
(3393.6 0 0 0 3393.6 0 0 0 3393.6)
(3398.11 0 0 0 3398.11 0 0 0 3398.11)
)
;

boundaryField
{
    inlet
    {
        type            zeroGradient;
    }
    outlet
    {
        type            zeroGradient;
    }
    fixedWalls
    {
        type            zeroGradient;
    }
}


// ************************************************************************* //
