/*--------------------------------*- C++ -*----------------------------------*\
| =========                 |                                                 |
| \\      /  F ield         | OpenFOAM: The Open Source CFD Toolbox           |
|  \\    /   O peration     | Version:  2406                                  |
|   \\  /    A nd           | Website:  www.openfoam.com                      |
|    \\/     M anipulation  |                                                 |
\*---------------------------------------------------------------------------*/
FoamFile
{
    version     2.0;
    format      ascii;
    arch        "LSB;label=32;scalar=64";
    class       volTensorField;
    location    "16/fluidRegion";
    object      KdTotU;
}
// * * * * * * * * * * * * * * * * * * * * * * * * * * * * * * * * * * * * * //

dimensions      [1 -2 -2 0 0 0 0];

internalField   nonuniform List<tensor> 
75
(
(539.428 0 0 0 539.428 0 0 0 539.428)
(539.428 0 0 0 539.428 0 0 0 539.428)
(539.428 0 0 0 539.428 0 0 0 539.428)
(539.428 0 0 0 539.428 0 0 0 539.428)
(539.428 0 0 0 539.428 0 0 0 539.428)
(539.282 0 0 0 539.282 0 0 0 539.282)
(539.103 0 0 0 539.103 0 0 0 539.103)
(538.893 0 0 0 538.893 0 0 0 538.893)
(538.661 0 0 0 538.661 0 0 0 538.661)
(538.42 0 0 0 538.42 0 0 0 538.42)
(538.182 0 0 0 538.182 0 0 0 538.182)
(537.965 0 0 0 537.965 0 0 0 537.965)
(565.892 0 0 0 565.892 0 0 0 565.892)
(627.039 0 0 0 627.039 0 0 0 627.039)
(705.799 0 0 0 705.799 0 0 0 705.799)
(804.446 0 0 0 804.446 0 0 0 804.446)
(922.294 0 0 0 922.294 0 0 0 922.294)
(1060.74 0 0 0 1060.74 0 0 0 1060.74)
(1221.1 0 0 0 1221.1 0 0 0 1221.1)
(1404.1 0 0 0 1404.1 0 0 0 1404.1)
(1608.13 0 0 0 1608.13 0 0 0 1608.13)
(1824.82 0 0 0 1824.82 0 0 0 1824.82)
(2052.15 0 0 0 2052.15 0 0 0 2052.15)
(2308.08 0 0 0 2308.08 0 0 0 2308.08)
(2576.3 0 0 0 2576.3 0 0 0 2576.3)
(2840.05 0 0 0 2840.05 0 0 0 2840.05)
(3094.25 0 0 0 3094.25 0 0 0 3094.25)
(3337.8 0 0 0 3337.8 0 0 0 3337.8)
(3570.52 0 0 0 3570.52 0 0 0 3570.52)
(3791.06 0 0 0 3791.06 0 0 0 3791.06)
(3999.12 0 0 0 3999.12 0 0 0 3999.12)
(4195.5 0 0 0 4195.5 0 0 0 4195.5)
(4381.06 0 0 0 4381.06 0 0 0 4381.06)
(4556.57 0 0 0 4556.57 0 0 0 4556.57)
(4722.65 0 0 0 4722.65 0 0 0 4722.65)
(4879.87 0 0 0 4879.87 0 0 0 4879.87)
(5028.74 0 0 0 5028.74 0 0 0 5028.74)
(5169.77 0 0 0 5169.77 0 0 0 5169.77)
(5303.43 0 0 0 5303.43 0 0 0 5303.43)
(5430.14 0 0 0 5430.14 0 0 0 5430.14)
(5550.3 0 0 0 5550.3 0 0 0 5550.3)
(5664.29 0 0 0 5664.29 0 0 0 5664.29)
(5772.5 0 0 0 5772.5 0 0 0 5772.5)
(5875.24 0 0 0 5875.24 0 0 0 5875.24)
(5972.76 0 0 0 5972.76 0 0 0 5972.76)
(6065.33 0 0 0 6065.33 0 0 0 6065.33)
(6153.17 0 0 0 6153.17 0 0 0 6153.17)
(6236.53 0 0 0 6236.53 0 0 0 6236.53)
(6315.62 0 0 0 6315.62 0 0 0 6315.62)
(6390.64 0 0 0 6390.64 0 0 0 6390.64)
(6461.79 0 0 0 6461.79 0 0 0 6461.79)
(6529.24 0 0 0 6529.24 0 0 0 6529.24)
(6593.15 0 0 0 6593.15 0 0 0 6593.15)
(6653.68 0 0 0 6653.68 0 0 0 6653.68)
(6710.98 0 0 0 6710.98 0 0 0 6710.98)
(6765.26 0 0 0 6765.26 0 0 0 6765.26)
(6816.63 0 0 0 6816.63 0 0 0 6816.63)
(6865.21 0 0 0 6865.21 0 0 0 6865.21)
(6911.11 0 0 0 6911.11 0 0 0 6911.11)
(6954.41 0 0 0 6954.41 0 0 0 6954.41)
(6995.21 0 0 0 6995.21 0 0 0 6995.21)
(7033.58 0 0 0 7033.58 0 0 0 7033.58)
(7069.61 0 0 0 7069.61 0 0 0 7069.61)
(7103.36 0 0 0 7103.36 0 0 0 7103.36)
(7134.91 0 0 0 7134.91 0 0 0 7134.91)
(7164.31 0 0 0 7164.31 0 0 0 7164.31)
(7191.63 0 0 0 7191.63 0 0 0 7191.63)
(7216.92 0 0 0 7216.92 0 0 0 7216.92)
(7240.24 0 0 0 7240.24 0 0 0 7240.24)
(7261.64 0 0 0 7261.64 0 0 0 7261.64)
(7281.17 0 0 0 7281.17 0 0 0 7281.17)
(7298.88 0 0 0 7298.88 0 0 0 7298.88)
(7314.82 0 0 0 7314.82 0 0 0 7314.82)
(7329.02 0 0 0 7329.02 0 0 0 7329.02)
(7341.72 0 0 0 7341.72 0 0 0 7341.72)
)
;

boundaryField
{
    inlet
    {
        type            zeroGradient;
    }
    outlet
    {
        type            zeroGradient;
    }
    fixedWalls
    {
        type            zeroGradient;
    }
}


// ************************************************************************* //
