/*--------------------------------*- C++ -*----------------------------------*\
| =========                 |                                                 |
| \\      /  F ield         | OpenFOAM: The Open Source CFD Toolbox           |
|  \\    /   O peration     | Version:  2406                                  |
|   \\  /    A nd           | Website:  www.openfoam.com                      |
|    \\/     M anipulation  |                                                 |
\*---------------------------------------------------------------------------*/
FoamFile
{
    version     2.0;
    format      ascii;
    arch        "LSB;label=32;scalar=64";
    class       volScalarField;
    location    "16/fluidRegion";
    object      p;
}
// * * * * * * * * * * * * * * * * * * * * * * * * * * * * * * * * * * * * * //

dimensions      [1 -1 -2 0 0 0 0];

internalField   nonuniform List<scalar> 
75
(
7.21747e+06
7.2173e+06
7.21713e+06
7.21695e+06
7.21678e+06
7.2166e+06
7.21641e+06
7.21622e+06
7.21603e+06
7.21584e+06
7.21565e+06
7.21546e+06
7.21527e+06
7.21507e+06
7.21487e+06
7.21466e+06
7.21445e+06
7.21423e+06
7.214e+06
7.21376e+06
7.21352e+06
7.21326e+06
7.213e+06
7.21272e+06
7.21243e+06
7.21214e+06
7.21183e+06
7.21152e+06
7.2112e+06
7.21088e+06
7.21055e+06
7.21022e+06
7.20988e+06
7.20954e+06
7.20919e+06
7.20884e+06
7.20848e+06
7.20813e+06
7.20776e+06
7.2074e+06
7.20703e+06
7.20665e+06
7.20628e+06
7.2059e+06
7.20552e+06
7.20513e+06
7.20475e+06
7.20436e+06
7.20397e+06
7.20357e+06
7.20318e+06
7.20278e+06
7.20238e+06
7.20198e+06
7.20158e+06
7.20117e+06
7.20077e+06
7.20036e+06
7.19995e+06
7.19955e+06
7.19913e+06
7.19872e+06
7.19831e+06
7.1979e+06
7.19748e+06
7.19707e+06
7.19665e+06
7.19624e+06
7.19582e+06
7.19541e+06
7.19499e+06
7.19457e+06
7.19415e+06
7.19373e+06
7.19332e+06
)
;

boundaryField
{
    inlet
    {
        type            calculated;
        value           uniform 7.21755e+06;
    }
    outlet
    {
        type            calculated;
        value           uniform 7.19311e+06;
    }
    fixedWalls
    {
        type            calculated;
        value           nonuniform List<scalar> 
300
(
7.21747e+06
7.2173e+06
7.21713e+06
7.21695e+06
7.21678e+06
7.2166e+06
7.21641e+06
7.21622e+06
7.21603e+06
7.21584e+06
7.21565e+06
7.21546e+06
7.21527e+06
7.21507e+06
7.21487e+06
7.21466e+06
7.21445e+06
7.21423e+06
7.214e+06
7.21376e+06
7.21352e+06
7.21326e+06
7.213e+06
7.21272e+06
7.21243e+06
7.21214e+06
7.21183e+06
7.21152e+06
7.2112e+06
7.21088e+06
7.21055e+06
7.21022e+06
7.20988e+06
7.20954e+06
7.20919e+06
7.20884e+06
7.20848e+06
7.20813e+06
7.20776e+06
7.2074e+06
7.20703e+06
7.20665e+06
7.20628e+06
7.2059e+06
7.20552e+06
7.20513e+06
7.20475e+06
7.20436e+06
7.20397e+06
7.20357e+06
7.20318e+06
7.20278e+06
7.20238e+06
7.20198e+06
7.20158e+06
7.20117e+06
7.20077e+06
7.20036e+06
7.19995e+06
7.19955e+06
7.19913e+06
7.19872e+06
7.19831e+06
7.1979e+06
7.19748e+06
7.19707e+06
7.19665e+06
7.19624e+06
7.19582e+06
7.19541e+06
7.19499e+06
7.19457e+06
7.19415e+06
7.19373e+06
7.19332e+06
7.21747e+06
7.2173e+06
7.21713e+06
7.21695e+06
7.21678e+06
7.2166e+06
7.21641e+06
7.21622e+06
7.21603e+06
7.21584e+06
7.21565e+06
7.21546e+06
7.21527e+06
7.21507e+06
7.21487e+06
7.21466e+06
7.21445e+06
7.21423e+06
7.214e+06
7.21376e+06
7.21352e+06
7.21326e+06
7.213e+06
7.21272e+06
7.21243e+06
7.21214e+06
7.21183e+06
7.21152e+06
7.2112e+06
7.21088e+06
7.21055e+06
7.21022e+06
7.20988e+06
7.20954e+06
7.20919e+06
7.20884e+06
7.20848e+06
7.20813e+06
7.20776e+06
7.2074e+06
7.20703e+06
7.20665e+06
7.20628e+06
7.2059e+06
7.20552e+06
7.20513e+06
7.20475e+06
7.20436e+06
7.20397e+06
7.20357e+06
7.20318e+06
7.20278e+06
7.20238e+06
7.20198e+06
7.20158e+06
7.20117e+06
7.20077e+06
7.20036e+06
7.19995e+06
7.19955e+06
7.19913e+06
7.19872e+06
7.19831e+06
7.1979e+06
7.19748e+06
7.19707e+06
7.19665e+06
7.19624e+06
7.19582e+06
7.19541e+06
7.19499e+06
7.19457e+06
7.19415e+06
7.19373e+06
7.19332e+06
7.21747e+06
7.2173e+06
7.21713e+06
7.21695e+06
7.21678e+06
7.2166e+06
7.21641e+06
7.21622e+06
7.21603e+06
7.21584e+06
7.21565e+06
7.21546e+06
7.21527e+06
7.21507e+06
7.21487e+06
7.21466e+06
7.21445e+06
7.21423e+06
7.214e+06
7.21376e+06
7.21352e+06
7.21326e+06
7.213e+06
7.21272e+06
7.21243e+06
7.21214e+06
7.21183e+06
7.21152e+06
7.2112e+06
7.21088e+06
7.21055e+06
7.21022e+06
7.20988e+06
7.20954e+06
7.20919e+06
7.20884e+06
7.20848e+06
7.20813e+06
7.20776e+06
7.2074e+06
7.20703e+06
7.20665e+06
7.20628e+06
7.2059e+06
7.20552e+06
7.20513e+06
7.20475e+06
7.20436e+06
7.20397e+06
7.20357e+06
7.20318e+06
7.20278e+06
7.20238e+06
7.20198e+06
7.20158e+06
7.20117e+06
7.20077e+06
7.20036e+06
7.19995e+06
7.19955e+06
7.19913e+06
7.19872e+06
7.19831e+06
7.1979e+06
7.19748e+06
7.19707e+06
7.19665e+06
7.19624e+06
7.19582e+06
7.19541e+06
7.19499e+06
7.19457e+06
7.19415e+06
7.19373e+06
7.19332e+06
7.21747e+06
7.2173e+06
7.21713e+06
7.21695e+06
7.21678e+06
7.2166e+06
7.21641e+06
7.21622e+06
7.21603e+06
7.21584e+06
7.21565e+06
7.21546e+06
7.21527e+06
7.21507e+06
7.21487e+06
7.21466e+06
7.21445e+06
7.21423e+06
7.214e+06
7.21376e+06
7.21352e+06
7.21326e+06
7.213e+06
7.21272e+06
7.21243e+06
7.21214e+06
7.21183e+06
7.21152e+06
7.2112e+06
7.21088e+06
7.21055e+06
7.21022e+06
7.20988e+06
7.20954e+06
7.20919e+06
7.20884e+06
7.20848e+06
7.20813e+06
7.20776e+06
7.2074e+06
7.20703e+06
7.20665e+06
7.20628e+06
7.2059e+06
7.20552e+06
7.20513e+06
7.20475e+06
7.20436e+06
7.20397e+06
7.20357e+06
7.20318e+06
7.20278e+06
7.20238e+06
7.20198e+06
7.20158e+06
7.20117e+06
7.20077e+06
7.20036e+06
7.19995e+06
7.19955e+06
7.19913e+06
7.19872e+06
7.19831e+06
7.1979e+06
7.19748e+06
7.19707e+06
7.19665e+06
7.19624e+06
7.19582e+06
7.19541e+06
7.19499e+06
7.19457e+06
7.19415e+06
7.19373e+06
7.19332e+06
)
;
    }
}


// ************************************************************************* //
