/*--------------------------------*- C++ -*----------------------------------*\
| =========                 |                                                 |
| \\      /  F ield         | OpenFOAM: The Open Source CFD Toolbox           |
|  \\    /   O peration     | Version:  2406                                  |
|   \\  /    A nd           | Website:  www.openfoam.com                      |
|    \\/     M anipulation  |                                                 |
\*---------------------------------------------------------------------------*/
FoamFile
{
    version     2.0;
    format      ascii;
    arch        "LSB;label=32;scalar=64";
    class       volScalarField;
    location    "16/fluidRegion";
    object      p_rgh;
}
// * * * * * * * * * * * * * * * * * * * * * * * * * * * * * * * * * * * * * //

dimensions      [1 -1 -2 0 0 0 0];

internalField   nonuniform List<scalar> 
75
(
7.21754e+06
7.21752e+06
7.2175e+06
7.21748e+06
7.21746e+06
7.21743e+06
7.21741e+06
7.21739e+06
7.21736e+06
7.21733e+06
7.21731e+06
7.21728e+06
7.21725e+06
7.2172e+06
7.21713e+06
7.21705e+06
7.21696e+06
7.21684e+06
7.21671e+06
7.21656e+06
7.21638e+06
7.21619e+06
7.21599e+06
7.21577e+06
7.21553e+06
7.21528e+06
7.21502e+06
7.21476e+06
7.2145e+06
7.21423e+06
7.21397e+06
7.21369e+06
7.21342e+06
7.21314e+06
7.21286e+06
7.21257e+06
7.21229e+06
7.212e+06
7.2117e+06
7.21141e+06
7.21111e+06
7.21081e+06
7.21051e+06
7.2102e+06
7.2099e+06
7.20959e+06
7.20928e+06
7.20896e+06
7.20865e+06
7.20833e+06
7.20802e+06
7.2077e+06
7.20738e+06
7.20706e+06
7.20673e+06
7.20641e+06
7.20608e+06
7.20576e+06
7.20543e+06
7.20511e+06
7.20478e+06
7.20445e+06
7.20412e+06
7.20379e+06
7.20346e+06
7.20313e+06
7.2028e+06
7.20247e+06
7.20214e+06
7.20181e+06
7.20148e+06
7.20115e+06
7.20082e+06
7.20049e+06
7.20016e+06
)
;

boundaryField
{
    inlet
    {
        type            fixedFluxPressure;
        gradient        uniform 1068.01;
        value           uniform 7.21755e+06;
    }
    outlet
    {
        type            fixedValue;
        value           uniform 7.2e+06;
    }
    fixedWalls
    {
        type            fixedFluxPressure;
        gradient        nonuniform List<scalar> 
300
(
0
0
0
0
0
0
0
0
0
0
0
0
0
0
6.02679e-17
-4.22362e-18
-4.29656e-17
0
0
0
0
1.67326e-16
-5.71392e-18
-1.41221e-16
0
0
0
0
0
0
0
0
0
0
0
0
0
0
0
0
0
0
0
0
0
-3.36328e-16
2.75399e-18
3.31799e-16
0
0
0
0
-2.71329e-18
2.645e-18
2.69786e-18
0
0
0
0
0
-3.37615e-16
1.29378e-18
3.36038e-16
0
0
0
0
-3.36826e-16
1.27343e-18
3.35947e-16
0
0
0
0
0
0
0
0
0
0
0
0
0
0
0
0
0
0
0
-6.02679e-17
4.22362e-18
4.29656e-17
0
0
0
0
-1.67326e-16
5.71392e-18
1.41221e-16
0
0
0
0
0
0
0
0
0
0
0
0
0
0
0
0
0
0
0
0
0
3.36328e-16
-2.75399e-18
-3.31799e-16
0
0
0
0
2.71329e-18
-2.645e-18
-2.69786e-18
0
0
0
0
0
3.37615e-16
-1.29378e-18
-3.36038e-16
0
0
0
0
3.36826e-16
-1.27343e-18
-3.35947e-16
0
0
0
0
0
0
0
0
0
0
0
0
0
0
0
0
0
0
0
6.02679e-17
-4.22362e-18
-4.29656e-17
0
0
0
0
1.67326e-16
-5.71392e-18
-1.41221e-16
0
0
0
0
0
0
0
0
0
0
0
0
0
0
0
0
0
0
0
0
0
-3.36328e-16
2.75399e-18
3.31799e-16
0
0
0
0
-2.71329e-18
2.645e-18
2.69786e-18
0
0
0
0
0
-3.37615e-16
1.29378e-18
3.36038e-16
0
0
0
0
-3.36826e-16
1.27343e-18
3.35947e-16
0
0
0
0
0
0
0
0
0
0
0
0
0
0
0
0
0
0
0
-6.02679e-17
4.22362e-18
4.29656e-17
0
0
0
0
-1.67326e-16
5.71392e-18
1.41221e-16
0
0
0
0
0
0
0
0
0
0
0
0
0
0
0
0
0
0
0
0
0
3.36328e-16
-2.75399e-18
-3.31799e-16
0
0
0
0
2.71329e-18
-2.645e-18
-2.69786e-18
0
0
0
0
0
3.37615e-16
-1.29378e-18
-3.36038e-16
0
0
0
0
3.36826e-16
-1.27343e-18
-3.35947e-16
0
0
0
0
0
)
;
        value           nonuniform List<scalar> 
300
(
7.21754e+06
7.21752e+06
7.2175e+06
7.21748e+06
7.21746e+06
7.21743e+06
7.21741e+06
7.21739e+06
7.21736e+06
7.21733e+06
7.21731e+06
7.21728e+06
7.21725e+06
7.2172e+06
7.21713e+06
7.21705e+06
7.21696e+06
7.21684e+06
7.21671e+06
7.21656e+06
7.21638e+06
7.21619e+06
7.21599e+06
7.21577e+06
7.21553e+06
7.21528e+06
7.21502e+06
7.21476e+06
7.2145e+06
7.21423e+06
7.21397e+06
7.21369e+06
7.21342e+06
7.21314e+06
7.21286e+06
7.21257e+06
7.21229e+06
7.212e+06
7.2117e+06
7.21141e+06
7.21111e+06
7.21081e+06
7.21051e+06
7.2102e+06
7.2099e+06
7.20959e+06
7.20928e+06
7.20896e+06
7.20865e+06
7.20833e+06
7.20802e+06
7.2077e+06
7.20738e+06
7.20706e+06
7.20673e+06
7.20641e+06
7.20608e+06
7.20576e+06
7.20543e+06
7.20511e+06
7.20478e+06
7.20445e+06
7.20412e+06
7.20379e+06
7.20346e+06
7.20313e+06
7.2028e+06
7.20247e+06
7.20214e+06
7.20181e+06
7.20148e+06
7.20115e+06
7.20082e+06
7.20049e+06
7.20016e+06
7.21754e+06
7.21752e+06
7.2175e+06
7.21748e+06
7.21746e+06
7.21743e+06
7.21741e+06
7.21739e+06
7.21736e+06
7.21733e+06
7.21731e+06
7.21728e+06
7.21725e+06
7.2172e+06
7.21713e+06
7.21705e+06
7.21696e+06
7.21684e+06
7.21671e+06
7.21656e+06
7.21638e+06
7.21619e+06
7.21599e+06
7.21577e+06
7.21553e+06
7.21528e+06
7.21502e+06
7.21476e+06
7.2145e+06
7.21423e+06
7.21397e+06
7.21369e+06
7.21342e+06
7.21314e+06
7.21286e+06
7.21257e+06
7.21229e+06
7.212e+06
7.2117e+06
7.21141e+06
7.21111e+06
7.21081e+06
7.21051e+06
7.2102e+06
7.2099e+06
7.20959e+06
7.20928e+06
7.20896e+06
7.20865e+06
7.20833e+06
7.20802e+06
7.2077e+06
7.20738e+06
7.20706e+06
7.20673e+06
7.20641e+06
7.20608e+06
7.20576e+06
7.20543e+06
7.20511e+06
7.20478e+06
7.20445e+06
7.20412e+06
7.20379e+06
7.20346e+06
7.20313e+06
7.2028e+06
7.20247e+06
7.20214e+06
7.20181e+06
7.20148e+06
7.20115e+06
7.20082e+06
7.20049e+06
7.20016e+06
7.21754e+06
7.21752e+06
7.2175e+06
7.21748e+06
7.21746e+06
7.21743e+06
7.21741e+06
7.21739e+06
7.21736e+06
7.21733e+06
7.21731e+06
7.21728e+06
7.21725e+06
7.2172e+06
7.21713e+06
7.21705e+06
7.21696e+06
7.21684e+06
7.21671e+06
7.21656e+06
7.21638e+06
7.21619e+06
7.21599e+06
7.21577e+06
7.21553e+06
7.21528e+06
7.21502e+06
7.21476e+06
7.2145e+06
7.21423e+06
7.21397e+06
7.21369e+06
7.21342e+06
7.21314e+06
7.21286e+06
7.21257e+06
7.21229e+06
7.212e+06
7.2117e+06
7.21141e+06
7.21111e+06
7.21081e+06
7.21051e+06
7.2102e+06
7.2099e+06
7.20959e+06
7.20928e+06
7.20896e+06
7.20865e+06
7.20833e+06
7.20802e+06
7.2077e+06
7.20738e+06
7.20706e+06
7.20673e+06
7.20641e+06
7.20608e+06
7.20576e+06
7.20543e+06
7.20511e+06
7.20478e+06
7.20445e+06
7.20412e+06
7.20379e+06
7.20346e+06
7.20313e+06
7.2028e+06
7.20247e+06
7.20214e+06
7.20181e+06
7.20148e+06
7.20115e+06
7.20082e+06
7.20049e+06
7.20016e+06
7.21754e+06
7.21752e+06
7.2175e+06
7.21748e+06
7.21746e+06
7.21743e+06
7.21741e+06
7.21739e+06
7.21736e+06
7.21733e+06
7.21731e+06
7.21728e+06
7.21725e+06
7.2172e+06
7.21713e+06
7.21705e+06
7.21696e+06
7.21684e+06
7.21671e+06
7.21656e+06
7.21638e+06
7.21619e+06
7.21599e+06
7.21577e+06
7.21553e+06
7.21528e+06
7.21502e+06
7.21476e+06
7.2145e+06
7.21423e+06
7.21397e+06
7.21369e+06
7.21342e+06
7.21314e+06
7.21286e+06
7.21257e+06
7.21229e+06
7.212e+06
7.2117e+06
7.21141e+06
7.21111e+06
7.21081e+06
7.21051e+06
7.2102e+06
7.2099e+06
7.20959e+06
7.20928e+06
7.20896e+06
7.20865e+06
7.20833e+06
7.20802e+06
7.2077e+06
7.20738e+06
7.20706e+06
7.20673e+06
7.20641e+06
7.20608e+06
7.20576e+06
7.20543e+06
7.20511e+06
7.20478e+06
7.20445e+06
7.20412e+06
7.20379e+06
7.20346e+06
7.20313e+06
7.2028e+06
7.20247e+06
7.20214e+06
7.20181e+06
7.20148e+06
7.20115e+06
7.20082e+06
7.20049e+06
7.20016e+06
)
;
    }
}


// ************************************************************************* //
