/*--------------------------------*- C++ -*----------------------------------*\
| =========                 |                                                 |
| \\      /  F ield         | OpenFOAM: The Open Source CFD Toolbox           |
|  \\    /   O peration     | Version:  2406                                  |
|   \\  /    A nd           | Website:  www.openfoam.com                      |
|    \\/     M anipulation  |                                                 |
\*---------------------------------------------------------------------------*/
FoamFile
{
    version     2.0;
    format      ascii;
    arch        "LSB;label=32;scalar=64";
    class       volScalarField;
    location    "30/fluidRegion";
    object      alphaRhoMagU.vapour;
}
// * * * * * * * * * * * * * * * * * * * * * * * * * * * * * * * * * * * * * //

dimensions      [1 -2 -1 0 0 0 0];

internalField   nonuniform List<scalar> 
70
(
0
0.113726
0.402175
0.823784
1.40061
2.14432
3.0754
4.21271
5.5713
7.15811
8.96916
10.9834
13.1507
15.3952
17.6348
19.8687
22.1075
24.3561
26.6166
28.8901
31.1771
33.478
35.7927
38.1213
40.4636
42.8194
45.1884
47.5703
49.9649
52.3717
54.7904
57.2208
59.6623
62.1148
64.5777
67.0526
69.5453
72.0573
74.5877
77.1354
79.6997
82.2794
84.8737
87.4816
90.1024
92.7351
95.3787
98.0346
100.684
103.257
105.772
108.256
110.723
113.18
115.631
118.081
120.531
122.983
125.438
127.896
130.359
132.827
135.299
137.778
140.261
142.752
145.245
147.756
150.227
152.894
)
;

boundaryField
{
    inlet
    {
        type            calculated;
        value           uniform 0;
    }
    outlet
    {
        type            calculated;
        value           uniform 152.863;
    }
    fixedWalls
    {
        type            calculated;
        value           nonuniform List<scalar> 
280
(
0
0.113726
0.402175
0.823784
1.40061
2.14432
3.0754
4.21271
5.5713
7.15811
8.96916
10.9834
13.1507
15.3952
17.6348
19.8687
22.1075
24.3561
26.6166
28.8901
31.1771
33.478
35.7927
38.1213
40.4636
42.8194
45.1884
47.5703
49.9649
52.3717
54.7904
57.2208
59.6623
62.1148
64.5777
67.0526
69.5453
72.0573
74.5877
77.1354
79.6997
82.2794
84.8737
87.4816
90.1024
92.7351
95.3787
98.0346
100.684
103.257
105.772
108.256
110.723
113.18
115.631
118.081
120.531
122.983
125.438
127.896
130.359
132.827
135.299
137.778
140.261
142.752
145.245
147.756
150.227
152.894
0
0.113726
0.402175
0.823784
1.40061
2.14432
3.0754
4.21271
5.5713
7.15811
8.96916
10.9834
13.1507
15.3952
17.6348
19.8687
22.1075
24.3561
26.6166
28.8901
31.1771
33.478
35.7927
38.1213
40.4636
42.8194
45.1884
47.5703
49.9649
52.3717
54.7904
57.2208
59.6623
62.1148
64.5777
67.0526
69.5453
72.0573
74.5877
77.1354
79.6997
82.2794
84.8737
87.4816
90.1024
92.7351
95.3787
98.0346
100.684
103.257
105.772
108.256
110.723
113.18
115.631
118.081
120.531
122.983
125.438
127.896
130.359
132.827
135.299
137.778
140.261
142.752
145.245
147.756
150.227
152.894
0
0.113726
0.402175
0.823784
1.40061
2.14432
3.0754
4.21271
5.5713
7.15811
8.96916
10.9834
13.1507
15.3952
17.6348
19.8687
22.1075
24.3561
26.6166
28.8901
31.1771
33.478
35.7927
38.1213
40.4636
42.8194
45.1884
47.5703
49.9649
52.3717
54.7904
57.2208
59.6623
62.1148
64.5777
67.0526
69.5453
72.0573
74.5877
77.1354
79.6997
82.2794
84.8737
87.4816
90.1024
92.7351
95.3787
98.0346
100.684
103.257
105.772
108.256
110.723
113.18
115.631
118.081
120.531
122.983
125.438
127.896
130.359
132.827
135.299
137.778
140.261
142.752
145.245
147.756
150.227
152.894
0
0.113726
0.402175
0.823784
1.40061
2.14432
3.0754
4.21271
5.5713
7.15811
8.96916
10.9834
13.1507
15.3952
17.6348
19.8687
22.1075
24.3561
26.6166
28.8901
31.1771
33.478
35.7927
38.1213
40.4636
42.8194
45.1884
47.5703
49.9649
52.3717
54.7904
57.2208
59.6623
62.1148
64.5777
67.0526
69.5453
72.0573
74.5877
77.1354
79.6997
82.2794
84.8737
87.4816
90.1024
92.7351
95.3787
98.0346
100.684
103.257
105.772
108.256
110.723
113.18
115.631
118.081
120.531
122.983
125.438
127.896
130.359
132.827
135.299
137.778
140.261
142.752
145.245
147.756
150.227
152.894
)
;
    }
}


// ************************************************************************* //
