/*--------------------------------*- C++ -*----------------------------------*\
| =========                 |                                                 |
| \\      /  F ield         | OpenFOAM: The Open Source CFD Toolbox           |
|  \\    /   O peration     | Version:  2406                                  |
|   \\  /    A nd           | Website:  www.openfoam.com                      |
|    \\/     M anipulation  |                                                 |
\*---------------------------------------------------------------------------*/
FoamFile
{
    version     2.0;
    format      ascii;
    arch        "LSB;label=32;scalar=64";
    class       volScalarField;
    location    "30/fluidRegion";
    object      dgdt.vapour;
}
// * * * * * * * * * * * * * * * * * * * * * * * * * * * * * * * * * * * * * //

dimensions      [0 0 -1 0 0 0 0];

internalField   nonuniform List<scalar> 
70
(
-0
0.0907032
0.186317
0.283759
0.38654
0.500806
0.628864
0.770541
0.922716
1.07948
1.23293
1.37071
1.4704
1.51496
1.50011
1.49961
1.50407
1.5108
1.51874
1.52734
1.53632
1.54549
1.55473
1.56397
1.57314
1.58221
1.59114
1.59992
1.60852
1.61693
1.62515
1.63317
1.64098
1.6486
1.65601
1.66474
1.67869
1.69203
1.70474
1.71684
1.72833
1.73922
1.74952
1.75925
1.7684
1.77701
1.78509
1.79266
1.79972
1.73665
1.69698
1.67838
1.66893
1.66442
1.66292
1.6634
1.66526
1.66812
1.67171
1.67585
1.68042
1.68531
1.69047
1.69582
1.70134
1.70697
1.71274
1.7184
1.72486
1.74932
)
;

boundaryField
{
    inlet
    {
        type            calculated;
        value           uniform -0;
    }
    outlet
    {
        type            calculated;
        value           uniform 1.74932;
    }
    fixedWalls
    {
        type            calculated;
        value           nonuniform List<scalar> 
280
(
-0
0.0907032
0.186317
0.283759
0.38654
0.500806
0.628864
0.770541
0.922716
1.07948
1.23293
1.37071
1.4704
1.51496
1.50011
1.49961
1.50407
1.5108
1.51874
1.52734
1.53632
1.54549
1.55473
1.56397
1.57314
1.58221
1.59114
1.59992
1.60852
1.61693
1.62515
1.63317
1.64098
1.6486
1.65601
1.66474
1.67869
1.69203
1.70474
1.71684
1.72833
1.73922
1.74952
1.75925
1.7684
1.77701
1.78509
1.79266
1.79972
1.73665
1.69698
1.67838
1.66893
1.66442
1.66292
1.6634
1.66526
1.66812
1.67171
1.67585
1.68042
1.68531
1.69047
1.69582
1.70134
1.70697
1.71274
1.7184
1.72486
1.74932
-0
0.0907032
0.186317
0.283759
0.38654
0.500806
0.628864
0.770541
0.922716
1.07948
1.23293
1.37071
1.4704
1.51496
1.50011
1.49961
1.50407
1.5108
1.51874
1.52734
1.53632
1.54549
1.55473
1.56397
1.57314
1.58221
1.59114
1.59992
1.60852
1.61693
1.62515
1.63317
1.64098
1.6486
1.65601
1.66474
1.67869
1.69203
1.70474
1.71684
1.72833
1.73922
1.74952
1.75925
1.7684
1.77701
1.78509
1.79266
1.79972
1.73665
1.69698
1.67838
1.66893
1.66442
1.66292
1.6634
1.66526
1.66812
1.67171
1.67585
1.68042
1.68531
1.69047
1.69582
1.70134
1.70697
1.71274
1.7184
1.72486
1.74932
-0
0.0907032
0.186317
0.283759
0.38654
0.500806
0.628864
0.770541
0.922716
1.07948
1.23293
1.37071
1.4704
1.51496
1.50011
1.49961
1.50407
1.5108
1.51874
1.52734
1.53632
1.54549
1.55473
1.56397
1.57314
1.58221
1.59114
1.59992
1.60852
1.61693
1.62515
1.63317
1.64098
1.6486
1.65601
1.66474
1.67869
1.69203
1.70474
1.71684
1.72833
1.73922
1.74952
1.75925
1.7684
1.77701
1.78509
1.79266
1.79972
1.73665
1.69698
1.67838
1.66893
1.66442
1.66292
1.6634
1.66526
1.66812
1.67171
1.67585
1.68042
1.68531
1.69047
1.69582
1.70134
1.70697
1.71274
1.7184
1.72486
1.74932
-0
0.0907032
0.186317
0.283759
0.38654
0.500806
0.628864
0.770541
0.922716
1.07948
1.23293
1.37071
1.4704
1.51496
1.50011
1.49961
1.50407
1.5108
1.51874
1.52734
1.53632
1.54549
1.55473
1.56397
1.57314
1.58221
1.59114
1.59992
1.60852
1.61693
1.62515
1.63317
1.64098
1.6486
1.65601
1.66474
1.67869
1.69203
1.70474
1.71684
1.72833
1.73922
1.74952
1.75925
1.7684
1.77701
1.78509
1.79266
1.79972
1.73665
1.69698
1.67838
1.66893
1.66442
1.66292
1.6634
1.66526
1.66812
1.67171
1.67585
1.68042
1.68531
1.69047
1.69582
1.70134
1.70697
1.71274
1.7184
1.72486
1.74932
)
;
    }
}


// ************************************************************************* //
