/*--------------------------------*- C++ -*----------------------------------*\
| =========                 |                                                 |
| \\      /  F ield         | OpenFOAM: The Open Source CFD Toolbox           |
|  \\    /   O peration     | Version:  2406                                  |
|   \\  /    A nd           | Website:  www.openfoam.com                      |
|    \\/     M anipulation  |                                                 |
\*---------------------------------------------------------------------------*/
FoamFile
{
    version     2.0;
    format      ascii;
    arch        "LSB;label=32;scalar=64";
    class       volTensorField;
    location    "30/fluidRegion";
    object      Kd.liquid.structure;
}
// * * * * * * * * * * * * * * * * * * * * * * * * * * * * * * * * * * * * * //

dimensions      [1 -3 -1 0 0 0 0];

internalField   nonuniform List<tensor> 
70
(
(422.807 0 0 0 422.807 0 0 0 422.807)
(435.309 0 0 0 435.309 0 0 0 435.309)
(462.845 0 0 0 462.845 0 0 0 462.845)
(499.138 0 0 0 499.138 0 0 0 499.138)
(545.148 0 0 0 545.148 0 0 0 545.148)
(600.552 0 0 0 600.552 0 0 0 600.552)
(665.59 0 0 0 665.59 0 0 0 665.59)
(740.184 0 0 0 740.184 0 0 0 740.184)
(823.876 0 0 0 823.876 0 0 0 823.876)
(915.679 0 0 0 915.679 0 0 0 915.679)
(1014.09 0 0 0 1014.09 0 0 0 1014.09)
(1116.98 0 0 0 1116.98 0 0 0 1116.98)
(1221.27 0 0 0 1221.27 0 0 0 1221.27)
(1323.33 0 0 0 1323.33 0 0 0 1323.33)
(1419.88 0 0 0 1419.88 0 0 0 1419.88)
(1511.35 0 0 0 1511.35 0 0 0 1511.35)
(1598.87 0 0 0 1598.87 0 0 0 1598.87)
(1683.11 0 0 0 1683.11 0 0 0 1683.11)
(1764.51 0 0 0 1764.51 0 0 0 1764.51)
(1843.41 0 0 0 1843.41 0 0 0 1843.41)
(1920.09 0 0 0 1920.09 0 0 0 1920.09)
(1994.76 0 0 0 1994.76 0 0 0 1994.76)
(2067.63 0 0 0 2067.63 0 0 0 2067.63)
(2138.84 0 0 0 2138.84 0 0 0 2138.84)
(2208.56 0 0 0 2208.56 0 0 0 2208.56)
(2276.89 0 0 0 2276.89 0 0 0 2276.89)
(2343.94 0 0 0 2343.94 0 0 0 2343.94)
(2409.82 0 0 0 2409.82 0 0 0 2409.82)
(2474.61 0 0 0 2474.61 0 0 0 2474.61)
(2538.38 0 0 0 2538.38 0 0 0 2538.38)
(2601.2 0 0 0 2601.2 0 0 0 2601.2)
(2663.13 0 0 0 2663.13 0 0 0 2663.13)
(2724.23 0 0 0 2724.23 0 0 0 2724.23)
(2784.55 0 0 0 2784.55 0 0 0 2784.55)
(2844.13 0 0 0 2844.13 0 0 0 2844.13)
(2903.05 0 0 0 2903.05 0 0 0 2903.05)
(2961.49 0 0 0 2961.49 0 0 0 2961.49)
(3019.53 0 0 0 3019.53 0 0 0 3019.53)
(3077.19 0 0 0 3077.19 0 0 0 3077.19)
(3134.48 0 0 0 3134.48 0 0 0 3134.48)
(3191.42 0 0 0 3191.42 0 0 0 3191.42)
(3248 0 0 0 3248 0 0 0 3248)
(3304.24 0 0 0 3304.24 0 0 0 3304.24)
(3360.13 0 0 0 3360.13 0 0 0 3360.13)
(3415.7 0 0 0 3415.7 0 0 0 3415.7)
(3470.94 0 0 0 3470.94 0 0 0 3470.94)
(3525.86 0 0 0 3525.86 0 0 0 3525.86)
(3580.41 0 0 0 3580.41 0 0 0 3580.41)
(3635.08 0 0 0 3635.08 0 0 0 3635.08)
(3728.32 0 0 0 3728.32 0 0 0 3728.32)
(3835.39 0 0 0 3835.39 0 0 0 3835.39)
(3941.7 0 0 0 3941.7 0 0 0 3941.7)
(4048 0 0 0 4048 0 0 0 4048)
(4154.7 0 0 0 4154.7 0 0 0 4154.7)
(4262.03 0 0 0 4262.03 0 0 0 4262.03)
(4370.11 0 0 0 4370.11 0 0 0 4370.11)
(4479.07 0 0 0 4479.07 0 0 0 4479.07)
(4588.95 0 0 0 4588.95 0 0 0 4588.95)
(4699.83 0 0 0 4699.83 0 0 0 4699.83)
(4811.72 0 0 0 4811.72 0 0 0 4811.72)
(4924.68 0 0 0 4924.68 0 0 0 4924.68)
(5038.72 0 0 0 5038.72 0 0 0 5038.72)
(5153.85 0 0 0 5153.85 0 0 0 5153.85)
(5270.12 0 0 0 5270.12 0 0 0 5270.12)
(5387.49 0 0 0 5387.49 0 0 0 5387.49)
(5506.09 0 0 0 5506.09 0 0 0 5506.09)
(5625.5 0 0 0 5625.5 0 0 0 5625.5)
(5747.5 0 0 0 5747.5 0 0 0 5747.5)
(5864.96 0 0 0 5864.96 0 0 0 5864.96)
(6006.69 0 0 0 6006.69 0 0 0 6006.69)
)
;

boundaryField
{
    inlet
    {
        type            zeroGradient;
    }
    outlet
    {
        type            zeroGradient;
    }
    fixedWalls
    {
        type            zeroGradient;
    }
}


// ************************************************************************* //
