/*--------------------------------*- C++ -*----------------------------------*\
| =========                 |                                                 |
| \\      /  F ield         | OpenFOAM: The Open Source CFD Toolbox           |
|  \\    /   O peration     | Version:  2406                                  |
|   \\  /    A nd           | Website:  www.openfoam.com                      |
|    \\/     M anipulation  |                                                 |
\*---------------------------------------------------------------------------*/
FoamFile
{
    version     2.0;
    format      ascii;
    arch        "LSB;label=32;scalar=64";
    class       volTensorField;
    location    "30/fluidRegion";
    object      KdTotU;
}
// * * * * * * * * * * * * * * * * * * * * * * * * * * * * * * * * * * * * * //

dimensions      [1 -2 -2 0 0 0 0];

internalField   nonuniform List<tensor> 
70
(
(930.378 0 0 0 930.378 0 0 0 930.378)
(960.299 0 0 0 960.299 0 0 0 960.299)
(1025.96 0 0 0 1025.96 0 0 0 1025.96)
(1113.97 0 0 0 1113.97 0 0 0 1113.97)
(1227.39 0 0 0 1227.39 0 0 0 1227.39)
(1366.85 0 0 0 1366.85 0 0 0 1366.85)
(1534.59 0 0 0 1534.59 0 0 0 1534.59)
(1732.46 0 0 0 1732.46 0 0 0 1732.46)
(1961.66 0 0 0 1961.66 0 0 0 1961.66)
(2222.09 0 0 0 2222.09 0 0 0 2222.09)
(2512.08 0 0 0 2512.08 0 0 0 2512.08)
(2827.66 0 0 0 2827.66 0 0 0 2827.66)
(3161.03 0 0 0 3161.03 0 0 0 3161.03)
(3501.09 0 0 0 3501.09 0 0 0 3501.09)
(3836.07 0 0 0 3836.07 0 0 0 3836.07)
(4164.97 0 0 0 4164.97 0 0 0 4164.97)
(4490.08 0 0 0 4490.08 0 0 0 4490.08)
(4812.5 0 0 0 4812.5 0 0 0 4812.5)
(5132.83 0 0 0 5132.83 0 0 0 5132.83)
(5451.46 0 0 0 5451.46 0 0 0 5451.46)
(5768.65 0 0 0 5768.65 0 0 0 5768.65)
(6084.59 0 0 0 6084.59 0 0 0 6084.59)
(6399.42 0 0 0 6399.42 0 0 0 6399.42)
(6713.23 0 0 0 6713.23 0 0 0 6713.23)
(7026.1 0 0 0 7026.1 0 0 0 7026.1)
(7338.07 0 0 0 7338.07 0 0 0 7338.07)
(7649.19 0 0 0 7649.19 0 0 0 7649.19)
(7959.47 0 0 0 7959.47 0 0 0 7959.47)
(8268.93 0 0 0 8268.93 0 0 0 8268.93)
(8577.57 0 0 0 8577.57 0 0 0 8577.57)
(8885.4 0 0 0 8885.4 0 0 0 8885.4)
(9192.39 0 0 0 9192.39 0 0 0 9192.39)
(9498.56 0 0 0 9498.56 0 0 0 9498.56)
(9803.87 0 0 0 9803.87 0 0 0 9803.87)
(10108.3 0 0 0 10108.3 0 0 0 10108.3)
(10412.1 0 0 0 10412.1 0 0 0 10412.1)
(10715.7 0 0 0 10715.7 0 0 0 10715.7)
(11019.6 0 0 0 11019.6 0 0 0 11019.6)
(11323.7 0 0 0 11323.7 0 0 0 11323.7)
(11627.7 0 0 0 11627.7 0 0 0 11627.7)
(11931.7 0 0 0 11931.7 0 0 0 11931.7)
(12235.4 0 0 0 12235.4 0 0 0 12235.4)
(12538.9 0 0 0 12538.9 0 0 0 12538.9)
(12841.9 0 0 0 12841.9 0 0 0 12841.9)
(13144.4 0 0 0 13144.4 0 0 0 13144.4)
(13446.2 0 0 0 13446.2 0 0 0 13446.2)
(13747.4 0 0 0 13747.4 0 0 0 13747.4)
(14047.8 0 0 0 14047.8 0 0 0 14047.8)
(14347.2 0 0 0 14347.2 0 0 0 14347.2)
(14792.5 0 0 0 14792.5 0 0 0 14792.5)
(15285.9 0 0 0 15285.9 0 0 0 15285.9)
(15773.5 0 0 0 15773.5 0 0 0 15773.5)
(16260 0 0 0 16260 0 0 0 16260)
(16747.6 0 0 0 16747.6 0 0 0 16747.6)
(17237.6 0 0 0 17237.6 0 0 0 17237.6)
(17730.5 0 0 0 17730.5 0 0 0 17730.5)
(18226.8 0 0 0 18226.8 0 0 0 18226.8)
(18726.6 0 0 0 18726.6 0 0 0 18726.6)
(19230.1 0 0 0 19230.1 0 0 0 19230.1)
(19737.3 0 0 0 19737.3 0 0 0 19737.3)
(20248.2 0 0 0 20248.2 0 0 0 20248.2)
(20762.8 0 0 0 20762.8 0 0 0 20762.8)
(21281.1 0 0 0 21281.1 0 0 0 21281.1)
(21803.1 0 0 0 21803.1 0 0 0 21803.1)
(22328.7 0 0 0 22328.7 0 0 0 22328.7)
(22858.1 0 0 0 22858.1 0 0 0 22858.1)
(23389.3 0 0 0 23389.3 0 0 0 23389.3)
(23931.2 0 0 0 23931.2 0 0 0 23931.2)
(24447.3 0 0 0 24447.3 0 0 0 24447.3)
(25083.9 0 0 0 25083.9 0 0 0 25083.9)
)
;

boundaryField
{
    inlet
    {
        type            zeroGradient;
    }
    outlet
    {
        type            zeroGradient;
    }
    fixedWalls
    {
        type            zeroGradient;
    }
}


// ************************************************************************* //
