/*--------------------------------*- C++ -*----------------------------------*\
| =========                 |                                                 |
| \\      /  F ield         | OpenFOAM: The Open Source CFD Toolbox           |
|  \\    /   O peration     | Version:  2406                                  |
|   \\  /    A nd           | Website:  www.openfoam.com                      |
|    \\/     M anipulation  |                                                 |
\*---------------------------------------------------------------------------*/
FoamFile
{
    version     2.0;
    format      ascii;
    arch        "LSB;label=32;scalar=64";
    class       volScalarField;
    location    "30/fluidRegion";
    object      p;
}
// * * * * * * * * * * * * * * * * * * * * * * * * * * * * * * * * * * * * * //

dimensions      [1 -1 -2 0 0 0 0];

internalField   nonuniform List<scalar> 
70
(
7.18733e+06
7.18684e+06
7.18633e+06
7.18581e+06
7.18527e+06
7.18472e+06
7.18415e+06
7.18356e+06
7.18294e+06
7.1823e+06
7.18162e+06
7.18092e+06
7.18018e+06
7.17941e+06
7.17861e+06
7.17779e+06
7.17695e+06
7.17608e+06
7.17518e+06
7.17426e+06
7.17332e+06
7.17234e+06
7.17135e+06
7.17032e+06
7.16927e+06
7.16819e+06
7.16709e+06
7.16596e+06
7.1648e+06
7.16361e+06
7.1624e+06
7.16116e+06
7.15989e+06
7.15859e+06
7.15727e+06
7.15591e+06
7.15453e+06
7.15312e+06
7.15169e+06
7.15022e+06
7.14872e+06
7.1472e+06
7.14564e+06
7.14406e+06
7.14245e+06
7.14081e+06
7.13914e+06
7.13744e+06
7.13571e+06
7.13395e+06
7.13215e+06
7.1303e+06
7.1284e+06
7.12646e+06
7.12447e+06
7.12244e+06
7.12035e+06
7.11822e+06
7.11603e+06
7.1138e+06
7.11151e+06
7.10918e+06
7.10679e+06
7.10435e+06
7.10186e+06
7.09931e+06
7.09671e+06
7.09406e+06
7.09135e+06
7.08859e+06
)
;

boundaryField
{
    inlet
    {
        type            calculated;
        value           uniform 7.18758e+06;
    }
    outlet
    {
        type            calculated;
        value           uniform 7.08717e+06;
    }
    fixedWalls
    {
        type            calculated;
        value           nonuniform List<scalar> 
280
(
7.18733e+06
7.18684e+06
7.18633e+06
7.18581e+06
7.18527e+06
7.18472e+06
7.18415e+06
7.18356e+06
7.18294e+06
7.1823e+06
7.18162e+06
7.18092e+06
7.18018e+06
7.17941e+06
7.17861e+06
7.17779e+06
7.17695e+06
7.17608e+06
7.17518e+06
7.17426e+06
7.17332e+06
7.17234e+06
7.17135e+06
7.17032e+06
7.16927e+06
7.16819e+06
7.16709e+06
7.16596e+06
7.1648e+06
7.16361e+06
7.1624e+06
7.16116e+06
7.15989e+06
7.15859e+06
7.15727e+06
7.15591e+06
7.15453e+06
7.15312e+06
7.15169e+06
7.15022e+06
7.14872e+06
7.1472e+06
7.14564e+06
7.14406e+06
7.14245e+06
7.14081e+06
7.13914e+06
7.13744e+06
7.13571e+06
7.13395e+06
7.13215e+06
7.1303e+06
7.1284e+06
7.12646e+06
7.12447e+06
7.12244e+06
7.12035e+06
7.11822e+06
7.11603e+06
7.1138e+06
7.11151e+06
7.10918e+06
7.10679e+06
7.10435e+06
7.10186e+06
7.09931e+06
7.09671e+06
7.09406e+06
7.09135e+06
7.08859e+06
7.18733e+06
7.18684e+06
7.18633e+06
7.18581e+06
7.18527e+06
7.18472e+06
7.18415e+06
7.18356e+06
7.18294e+06
7.1823e+06
7.18162e+06
7.18092e+06
7.18018e+06
7.17941e+06
7.17861e+06
7.17779e+06
7.17695e+06
7.17608e+06
7.17518e+06
7.17426e+06
7.17332e+06
7.17234e+06
7.17135e+06
7.17032e+06
7.16927e+06
7.16819e+06
7.16709e+06
7.16596e+06
7.1648e+06
7.16361e+06
7.1624e+06
7.16116e+06
7.15989e+06
7.15859e+06
7.15727e+06
7.15591e+06
7.15453e+06
7.15312e+06
7.15169e+06
7.15022e+06
7.14872e+06
7.1472e+06
7.14564e+06
7.14406e+06
7.14245e+06
7.14081e+06
7.13914e+06
7.13744e+06
7.13571e+06
7.13395e+06
7.13215e+06
7.1303e+06
7.1284e+06
7.12646e+06
7.12447e+06
7.12244e+06
7.12035e+06
7.11822e+06
7.11603e+06
7.1138e+06
7.11151e+06
7.10918e+06
7.10679e+06
7.10435e+06
7.10186e+06
7.09931e+06
7.09671e+06
7.09406e+06
7.09135e+06
7.08859e+06
7.18733e+06
7.18684e+06
7.18633e+06
7.18581e+06
7.18527e+06
7.18472e+06
7.18415e+06
7.18356e+06
7.18294e+06
7.1823e+06
7.18162e+06
7.18092e+06
7.18018e+06
7.17941e+06
7.17861e+06
7.17779e+06
7.17695e+06
7.17608e+06
7.17518e+06
7.17426e+06
7.17332e+06
7.17234e+06
7.17135e+06
7.17032e+06
7.16927e+06
7.16819e+06
7.16709e+06
7.16596e+06
7.1648e+06
7.16361e+06
7.1624e+06
7.16116e+06
7.15989e+06
7.15859e+06
7.15727e+06
7.15591e+06
7.15453e+06
7.15312e+06
7.15169e+06
7.15022e+06
7.14872e+06
7.1472e+06
7.14564e+06
7.14406e+06
7.14245e+06
7.14081e+06
7.13914e+06
7.13744e+06
7.13571e+06
7.13395e+06
7.13215e+06
7.1303e+06
7.1284e+06
7.12646e+06
7.12447e+06
7.12244e+06
7.12035e+06
7.11822e+06
7.11603e+06
7.1138e+06
7.11151e+06
7.10918e+06
7.10679e+06
7.10435e+06
7.10186e+06
7.09931e+06
7.09671e+06
7.09406e+06
7.09135e+06
7.08859e+06
7.18733e+06
7.18684e+06
7.18633e+06
7.18581e+06
7.18527e+06
7.18472e+06
7.18415e+06
7.18356e+06
7.18294e+06
7.1823e+06
7.18162e+06
7.18092e+06
7.18018e+06
7.17941e+06
7.17861e+06
7.17779e+06
7.17695e+06
7.17608e+06
7.17518e+06
7.17426e+06
7.17332e+06
7.17234e+06
7.17135e+06
7.17032e+06
7.16927e+06
7.16819e+06
7.16709e+06
7.16596e+06
7.1648e+06
7.16361e+06
7.1624e+06
7.16116e+06
7.15989e+06
7.15859e+06
7.15727e+06
7.15591e+06
7.15453e+06
7.15312e+06
7.15169e+06
7.15022e+06
7.14872e+06
7.1472e+06
7.14564e+06
7.14406e+06
7.14245e+06
7.14081e+06
7.13914e+06
7.13744e+06
7.13571e+06
7.13395e+06
7.13215e+06
7.1303e+06
7.1284e+06
7.12646e+06
7.12447e+06
7.12244e+06
7.12035e+06
7.11822e+06
7.11603e+06
7.1138e+06
7.11151e+06
7.10918e+06
7.10679e+06
7.10435e+06
7.10186e+06
7.09931e+06
7.09671e+06
7.09406e+06
7.09135e+06
7.08859e+06
)
;
    }
}


// ************************************************************************* //
