/*--------------------------------*- C++ -*----------------------------------*\
| =========                 |                                                 |
| \\      /  F ield         | OpenFOAM: The Open Source CFD Toolbox           |
|  \\    /   O peration     | Version:  2406                                  |
|   \\  /    A nd           | Website:  www.openfoam.com                      |
|    \\/     M anipulation  |                                                 |
\*---------------------------------------------------------------------------*/
FoamFile
{
    version     2.0;
    format      ascii;
    arch        "LSB;label=32;scalar=64";
    class       volScalarField;
    location    "30/fluidRegion";
    object      p_rgh;
}
// * * * * * * * * * * * * * * * * * * * * * * * * * * * * * * * * * * * * * //

dimensions      [1 -1 -2 0 0 0 0];

internalField   nonuniform List<scalar> 
70
(
7.18753e+06
7.18744e+06
7.18732e+06
7.18719e+06
7.18703e+06
7.18684e+06
7.18662e+06
7.18636e+06
7.18605e+06
7.1857e+06
7.1853e+06
7.18485e+06
7.18436e+06
7.18382e+06
7.18325e+06
7.18265e+06
7.18201e+06
7.18135e+06
7.18065e+06
7.17993e+06
7.17917e+06
7.17838e+06
7.17756e+06
7.17672e+06
7.17584e+06
7.17493e+06
7.17399e+06
7.17302e+06
7.17202e+06
7.17099e+06
7.16993e+06
7.16884e+06
7.16772e+06
7.16657e+06
7.16539e+06
7.16418e+06
7.16294e+06
7.16167e+06
7.16037e+06
7.15904e+06
7.15767e+06
7.15628e+06
7.15485e+06
7.1534e+06
7.15191e+06
7.1504e+06
7.14885e+06
7.14727e+06
7.14567e+06
7.14404e+06
7.14237e+06
7.14065e+06
7.13889e+06
7.13709e+06
7.13523e+06
7.13333e+06
7.13138e+06
7.12938e+06
7.12733e+06
7.12523e+06
7.12308e+06
7.12087e+06
7.11862e+06
7.11631e+06
7.11395e+06
7.11154e+06
7.10907e+06
7.10655e+06
7.10398e+06
7.10133e+06
)
;

boundaryField
{
    inlet
    {
        type            fixedFluxPressure;
        gradient        uniform 1689.31;
        value           uniform 7.18758e+06;
    }
    outlet
    {
        type            fixedValue;
        value           uniform 7.1e+06;
    }
    fixedWalls
    {
        type            fixedFluxPressure;
        gradient        nonuniform List<scalar> 
280
(
0
0
0
0
0
0
0
0
0
0
0
0
0
0
-1.06175e-16
3.29944e-18
9.05362e-17
0
1.04163e-16
-1.02578e-16
-9.08264e-17
2.02783e-16
-1.1153e-16
-2.06726e-16
1.05155e-16
1.00124e-16
-1.06335e-16
-1.01946e-16
3.19891e-16
-1.1598e-16
-4.15508e-16
2.09997e-16
2.06425e-16
0
2.14949e-16
-3.71159e-18
7.23211e-18
-2.20493e-16
-2.07071e-16
2.11564e-16
0
-2.13546e-16
6.79159e-18
2.0907e-16
-2.13585e-16
2.2468e-16
2.03069e-16
-4.28289e-16
1.00675e-20
4.27924e-16
0
-4.28703e-16
6.24245e-18
2.11889e-16
-1.1553e-18
6.13681e-18
1.15176e-18
-2.13635e-16
4.93071e-21
4.29364e-16
2.16723e-16
-2.21787e-16
2.13816e-16
-5.92086e-18
-4.25397e-16
2.12431e-16
-5.85226e-18
-2.10904e-16
0
0
0
0
0
0
0
0
0
0
0
0
0
0
0
0
1.06175e-16
-3.29944e-18
-9.05362e-17
0
-1.04163e-16
1.02578e-16
9.08264e-17
-2.02783e-16
1.1153e-16
2.06726e-16
-1.05155e-16
-1.00124e-16
1.06335e-16
1.01946e-16
-3.19891e-16
1.1598e-16
4.15508e-16
-2.09997e-16
-2.06425e-16
0
-2.14949e-16
3.71159e-18
-7.23211e-18
2.20493e-16
2.07071e-16
-2.11564e-16
0
2.13546e-16
-6.79159e-18
-2.0907e-16
2.13585e-16
-2.2468e-16
-2.03069e-16
4.28289e-16
-1.00675e-20
-4.27924e-16
0
4.28703e-16
-6.24245e-18
-2.11889e-16
1.1553e-18
-6.13681e-18
-1.15176e-18
2.13635e-16
-4.93071e-21
-4.29364e-16
-2.16723e-16
2.21787e-16
-2.13816e-16
5.92086e-18
4.25397e-16
-2.12431e-16
5.85226e-18
2.10904e-16
0
0
0
0
0
0
0
0
0
0
0
0
0
0
0
0
-1.06175e-16
3.29944e-18
9.05362e-17
0
1.04163e-16
-1.02578e-16
-9.08264e-17
2.02783e-16
-1.1153e-16
-2.06726e-16
1.05155e-16
1.00124e-16
-1.06335e-16
-1.01946e-16
3.19891e-16
-1.1598e-16
-4.15508e-16
2.09997e-16
2.06425e-16
0
2.14949e-16
-3.71159e-18
7.23211e-18
-2.20493e-16
-2.07071e-16
2.11564e-16
0
-2.13546e-16
6.79159e-18
2.0907e-16
-2.13585e-16
2.2468e-16
2.03069e-16
-4.28289e-16
1.00675e-20
4.27924e-16
0
-4.28703e-16
6.24245e-18
2.11889e-16
-1.1553e-18
6.13681e-18
1.15176e-18
-2.13635e-16
4.93071e-21
4.29364e-16
2.16723e-16
-2.21787e-16
2.13816e-16
-5.92086e-18
-4.25397e-16
2.12431e-16
-5.85226e-18
-2.10904e-16
0
0
0
0
0
0
0
0
0
0
0
0
0
0
0
0
1.06175e-16
-3.29944e-18
-9.05362e-17
0
-1.04163e-16
1.02578e-16
9.08264e-17
-2.02783e-16
1.1153e-16
2.06726e-16
-1.05155e-16
-1.00124e-16
1.06335e-16
1.01946e-16
-3.19891e-16
1.1598e-16
4.15508e-16
-2.09997e-16
-2.06425e-16
0
-2.14949e-16
3.71159e-18
-7.23211e-18
2.20493e-16
2.07071e-16
-2.11564e-16
0
2.13546e-16
-6.79159e-18
-2.0907e-16
2.13585e-16
-2.2468e-16
-2.03069e-16
4.28289e-16
-1.00675e-20
-4.27924e-16
0
4.28703e-16
-6.24245e-18
-2.11889e-16
1.1553e-18
-6.13681e-18
-1.15176e-18
2.13635e-16
-4.93071e-21
-4.29364e-16
-2.16723e-16
2.21787e-16
-2.13816e-16
5.92086e-18
4.25397e-16
-2.12431e-16
5.85226e-18
2.10904e-16
0
0
)
;
        value           nonuniform List<scalar> 
280
(
7.18753e+06
7.18744e+06
7.18732e+06
7.18719e+06
7.18703e+06
7.18684e+06
7.18662e+06
7.18636e+06
7.18605e+06
7.1857e+06
7.1853e+06
7.18485e+06
7.18436e+06
7.18382e+06
7.18325e+06
7.18265e+06
7.18201e+06
7.18135e+06
7.18065e+06
7.17993e+06
7.17917e+06
7.17838e+06
7.17756e+06
7.17672e+06
7.17584e+06
7.17493e+06
7.17399e+06
7.17302e+06
7.17202e+06
7.17099e+06
7.16993e+06
7.16884e+06
7.16772e+06
7.16657e+06
7.16539e+06
7.16418e+06
7.16294e+06
7.16167e+06
7.16037e+06
7.15904e+06
7.15767e+06
7.15628e+06
7.15485e+06
7.1534e+06
7.15191e+06
7.1504e+06
7.14885e+06
7.14727e+06
7.14567e+06
7.14404e+06
7.14237e+06
7.14065e+06
7.13889e+06
7.13709e+06
7.13523e+06
7.13333e+06
7.13138e+06
7.12938e+06
7.12733e+06
7.12523e+06
7.12308e+06
7.12087e+06
7.11862e+06
7.11631e+06
7.11395e+06
7.11154e+06
7.10907e+06
7.10655e+06
7.10398e+06
7.10133e+06
7.18753e+06
7.18744e+06
7.18732e+06
7.18719e+06
7.18703e+06
7.18684e+06
7.18662e+06
7.18636e+06
7.18605e+06
7.1857e+06
7.1853e+06
7.18485e+06
7.18436e+06
7.18382e+06
7.18325e+06
7.18265e+06
7.18201e+06
7.18135e+06
7.18065e+06
7.17993e+06
7.17917e+06
7.17838e+06
7.17756e+06
7.17672e+06
7.17584e+06
7.17493e+06
7.17399e+06
7.17302e+06
7.17202e+06
7.17099e+06
7.16993e+06
7.16884e+06
7.16772e+06
7.16657e+06
7.16539e+06
7.16418e+06
7.16294e+06
7.16167e+06
7.16037e+06
7.15904e+06
7.15767e+06
7.15628e+06
7.15485e+06
7.1534e+06
7.15191e+06
7.1504e+06
7.14885e+06
7.14727e+06
7.14567e+06
7.14404e+06
7.14237e+06
7.14065e+06
7.13889e+06
7.13709e+06
7.13523e+06
7.13333e+06
7.13138e+06
7.12938e+06
7.12733e+06
7.12523e+06
7.12308e+06
7.12087e+06
7.11862e+06
7.11631e+06
7.11395e+06
7.11154e+06
7.10907e+06
7.10655e+06
7.10398e+06
7.10133e+06
7.18753e+06
7.18744e+06
7.18732e+06
7.18719e+06
7.18703e+06
7.18684e+06
7.18662e+06
7.18636e+06
7.18605e+06
7.1857e+06
7.1853e+06
7.18485e+06
7.18436e+06
7.18382e+06
7.18325e+06
7.18265e+06
7.18201e+06
7.18135e+06
7.18065e+06
7.17993e+06
7.17917e+06
7.17838e+06
7.17756e+06
7.17672e+06
7.17584e+06
7.17493e+06
7.17399e+06
7.17302e+06
7.17202e+06
7.17099e+06
7.16993e+06
7.16884e+06
7.16772e+06
7.16657e+06
7.16539e+06
7.16418e+06
7.16294e+06
7.16167e+06
7.16037e+06
7.15904e+06
7.15767e+06
7.15628e+06
7.15485e+06
7.1534e+06
7.15191e+06
7.1504e+06
7.14885e+06
7.14727e+06
7.14567e+06
7.14404e+06
7.14237e+06
7.14065e+06
7.13889e+06
7.13709e+06
7.13523e+06
7.13333e+06
7.13138e+06
7.12938e+06
7.12733e+06
7.12523e+06
7.12308e+06
7.12087e+06
7.11862e+06
7.11631e+06
7.11395e+06
7.11154e+06
7.10907e+06
7.10655e+06
7.10398e+06
7.10133e+06
7.18753e+06
7.18744e+06
7.18732e+06
7.18719e+06
7.18703e+06
7.18684e+06
7.18662e+06
7.18636e+06
7.18605e+06
7.1857e+06
7.1853e+06
7.18485e+06
7.18436e+06
7.18382e+06
7.18325e+06
7.18265e+06
7.18201e+06
7.18135e+06
7.18065e+06
7.17993e+06
7.17917e+06
7.17838e+06
7.17756e+06
7.17672e+06
7.17584e+06
7.17493e+06
7.17399e+06
7.17302e+06
7.17202e+06
7.17099e+06
7.16993e+06
7.16884e+06
7.16772e+06
7.16657e+06
7.16539e+06
7.16418e+06
7.16294e+06
7.16167e+06
7.16037e+06
7.15904e+06
7.15767e+06
7.15628e+06
7.15485e+06
7.1534e+06
7.15191e+06
7.1504e+06
7.14885e+06
7.14727e+06
7.14567e+06
7.14404e+06
7.14237e+06
7.14065e+06
7.13889e+06
7.13709e+06
7.13523e+06
7.13333e+06
7.13138e+06
7.12938e+06
7.12733e+06
7.12523e+06
7.12308e+06
7.12087e+06
7.11862e+06
7.11631e+06
7.11395e+06
7.11154e+06
7.10907e+06
7.10655e+06
7.10398e+06
7.10133e+06
)
;
    }
}


// ************************************************************************* //
