/*--------------------------------*- C++ -*----------------------------------*\
| =========                 |                                                 |
| \\      /  F ield         | OpenFOAM: The Open Source CFD Toolbox           |
|  \\    /   O peration     | Version:  2406                                  |
|   \\  /    A nd           | Website:  www.openfoam.com                      |
|    \\/     M anipulation  |                                                 |
\*---------------------------------------------------------------------------*/
FoamFile
{
    version     2.0;
    format      ascii;
    arch        "LSB;label=32;scalar=64";
    class       volTensorField;
    location    "30/fluidRegion";
    object      KdTotU;
}
// * * * * * * * * * * * * * * * * * * * * * * * * * * * * * * * * * * * * * //

dimensions      [1 -2 -2 0 0 0 0];

internalField   nonuniform List<tensor> 
75
(
(539.522 0 0 0 539.522 0 0 0 539.522)
(539.522 0 0 0 539.522 0 0 0 539.522)
(539.522 0 0 0 539.522 0 0 0 539.522)
(539.522 0 0 0 539.522 0 0 0 539.522)
(539.522 0 0 0 539.522 0 0 0 539.522)
(539.083 0 0 0 539.083 0 0 0 539.083)
(538.909 0 0 0 538.909 0 0 0 538.909)
(538.752 0 0 0 538.752 0 0 0 538.752)
(538.613 0 0 0 538.613 0 0 0 538.613)
(538.492 0 0 0 538.492 0 0 0 538.492)
(538.388 0 0 0 538.388 0 0 0 538.388)
(538.3 0 0 0 538.3 0 0 0 538.3)
(538.23 0 0 0 538.23 0 0 0 538.23)
(538.176 0 0 0 538.176 0 0 0 538.176)
(538.139 0 0 0 538.139 0 0 0 538.139)
(538.118 0 0 0 538.118 0 0 0 538.118)
(538.113 0 0 0 538.113 0 0 0 538.113)
(538.124 0 0 0 538.124 0 0 0 538.124)
(538.151 0 0 0 538.151 0 0 0 538.151)
(538.194 0 0 0 538.194 0 0 0 538.194)
(538.252 0 0 0 538.252 0 0 0 538.252)
(548.544 0 0 0 548.544 0 0 0 548.544)
(567.974 0 0 0 567.974 0 0 0 567.974)
(594.476 0 0 0 594.476 0 0 0 594.476)
(627.238 0 0 0 627.238 0 0 0 627.238)
(666.032 0 0 0 666.032 0 0 0 666.032)
(710.911 0 0 0 710.911 0 0 0 710.911)
(762.123 0 0 0 762.123 0 0 0 762.123)
(820.028 0 0 0 820.028 0 0 0 820.028)
(885.047 0 0 0 885.047 0 0 0 885.047)
(957.617 0 0 0 957.617 0 0 0 957.617)
(1038.14 0 0 0 1038.14 0 0 0 1038.14)
(1126.97 0 0 0 1126.97 0 0 0 1126.97)
(1224.31 0 0 0 1224.31 0 0 0 1224.31)
(1330.25 0 0 0 1330.25 0 0 0 1330.25)
(1444.69 0 0 0 1444.69 0 0 0 1444.69)
(1567.32 0 0 0 1567.32 0 0 0 1567.32)
(1697.65 0 0 0 1697.65 0 0 0 1697.65)
(1835.02 0 0 0 1835.02 0 0 0 1835.02)
(1976.92 0 0 0 1976.92 0 0 0 1976.92)
(2120.08 0 0 0 2120.08 0 0 0 2120.08)
(2263.03 0 0 0 2263.03 0 0 0 2263.03)
(2405.48 0 0 0 2405.48 0 0 0 2405.48)
(2547.38 0 0 0 2547.38 0 0 0 2547.38)
(2688.72 0 0 0 2688.72 0 0 0 2688.72)
(2829.54 0 0 0 2829.54 0 0 0 2829.54)
(2969.86 0 0 0 2969.86 0 0 0 2969.86)
(3109.71 0 0 0 3109.71 0 0 0 3109.71)
(3249.11 0 0 0 3249.11 0 0 0 3249.11)
(3388.09 0 0 0 3388.09 0 0 0 3388.09)
(3526.67 0 0 0 3526.67 0 0 0 3526.67)
(3664.86 0 0 0 3664.86 0 0 0 3664.86)
(3802.68 0 0 0 3802.68 0 0 0 3802.68)
(3940.14 0 0 0 3940.14 0 0 0 3940.14)
(4077.25 0 0 0 4077.25 0 0 0 4077.25)
(4214.01 0 0 0 4214.01 0 0 0 4214.01)
(4350.43 0 0 0 4350.43 0 0 0 4350.43)
(4486.52 0 0 0 4486.52 0 0 0 4486.52)
(4622.27 0 0 0 4622.27 0 0 0 4622.27)
(4757.7 0 0 0 4757.7 0 0 0 4757.7)
(4892.79 0 0 0 4892.79 0 0 0 4892.79)
(5027.56 0 0 0 5027.56 0 0 0 5027.56)
(5162 0 0 0 5162 0 0 0 5162)
(5296.11 0 0 0 5296.11 0 0 0 5296.11)
(5429.9 0 0 0 5429.9 0 0 0 5429.9)
(5563.35 0 0 0 5563.35 0 0 0 5563.35)
(5696.47 0 0 0 5696.47 0 0 0 5696.47)
(5829.26 0 0 0 5829.26 0 0 0 5829.26)
(5961.72 0 0 0 5961.72 0 0 0 5961.72)
(6093.91 0 0 0 6093.91 0 0 0 6093.91)
(6225.96 0 0 0 6225.96 0 0 0 6225.96)
(6357.94 0 0 0 6357.94 0 0 0 6357.94)
(6489.83 0 0 0 6489.83 0 0 0 6489.83)
(6621.61 0 0 0 6621.61 0 0 0 6621.61)
(6753.5 0 0 0 6753.5 0 0 0 6753.5)
)
;

boundaryField
{
    inlet
    {
        type            zeroGradient;
    }
    outlet
    {
        type            zeroGradient;
    }
    fixedWalls
    {
        type            zeroGradient;
    }
}


// ************************************************************************* //
