/*--------------------------------*- C++ -*----------------------------------*\
| =========                 |                                                 |
| \\      /  F ield         | OpenFOAM: The Open Source CFD Toolbox           |
|  \\    /   O peration     | Version:  2406                                  |
|   \\  /    A nd           | Website:  www.openfoam.com                      |
|    \\/     M anipulation  |                                                 |
\*---------------------------------------------------------------------------*/
FoamFile
{
    version     2.0;
    format      ascii;
    arch        "LSB;label=32;scalar=64";
    class       volScalarField;
    location    "30/fluidRegion";
    object      alphaRhoMagU.vapour;
}
// * * * * * * * * * * * * * * * * * * * * * * * * * * * * * * * * * * * * * //

dimensions      [1 -2 -1 0 0 0 0];

internalField   nonuniform List<scalar> 
75
(
1.413e-08
2.8262e-08
4.23965e-08
5.64694e-08
7.98701e-08
0.819771
1.94568
3.04127
4.08776
5.11027
6.12639
7.14249
8.15993
9.17957
10.2017
11.2267
12.2545
13.2852
14.3188
15.3552
16.3946
17.4377
18.4855
19.538
20.595
21.6564
22.722
23.7915
24.8649
25.9397
27.0012
28.0506
29.1011
30.1506
31.2008
32.2516
33.3032
34.356
35.4099
36.4653
37.5221
38.5805
39.6404
40.702
41.7652
42.8301
43.8966
44.9647
46.0344
47.1056
48.1784
49.2527
50.3284
51.4055
52.484
53.5639
54.6452
55.7277
56.8114
57.8962
58.9821
60.0688
61.1564
62.2448
63.334
64.4242
65.5153
66.6073
67.7006
68.794
69.8906
70.9815
72.0931
73.1488
74.3683
)
;

boundaryField
{
    inlet
    {
        type            calculated;
        value           uniform 0;
    }
    outlet
    {
        type            calculated;
        value           uniform 74.3665;
    }
    fixedWalls
    {
        type            calculated;
        value           nonuniform List<scalar> 
300
(
1.413e-08
2.8262e-08
4.23965e-08
5.64694e-08
7.98701e-08
0.819771
1.94568
3.04127
4.08776
5.11027
6.12639
7.14249
8.15993
9.17957
10.2017
11.2267
12.2545
13.2852
14.3188
15.3552
16.3946
17.4377
18.4855
19.538
20.595
21.6564
22.722
23.7915
24.8649
25.9397
27.0012
28.0506
29.1011
30.1506
31.2008
32.2516
33.3032
34.356
35.4099
36.4653
37.5221
38.5805
39.6404
40.702
41.7652
42.8301
43.8966
44.9647
46.0344
47.1056
48.1784
49.2527
50.3284
51.4055
52.484
53.5639
54.6452
55.7277
56.8114
57.8962
58.9821
60.0688
61.1564
62.2448
63.334
64.4242
65.5153
66.6073
67.7006
68.794
69.8906
70.9815
72.0931
73.1488
74.3683
1.413e-08
2.8262e-08
4.23965e-08
5.64694e-08
7.98701e-08
0.819771
1.94568
3.04127
4.08776
5.11027
6.12639
7.14249
8.15993
9.17957
10.2017
11.2267
12.2545
13.2852
14.3188
15.3552
16.3946
17.4377
18.4855
19.538
20.595
21.6564
22.722
23.7915
24.8649
25.9397
27.0012
28.0506
29.1011
30.1506
31.2008
32.2516
33.3032
34.356
35.4099
36.4653
37.5221
38.5805
39.6404
40.702
41.7652
42.8301
43.8966
44.9647
46.0344
47.1056
48.1784
49.2527
50.3284
51.4055
52.484
53.5639
54.6452
55.7277
56.8114
57.8962
58.9821
60.0688
61.1564
62.2448
63.334
64.4242
65.5153
66.6073
67.7006
68.794
69.8906
70.9815
72.0931
73.1488
74.3683
1.413e-08
2.8262e-08
4.23965e-08
5.64694e-08
7.98701e-08
0.819771
1.94568
3.04127
4.08776
5.11027
6.12639
7.14249
8.15993
9.17957
10.2017
11.2267
12.2545
13.2852
14.3188
15.3552
16.3946
17.4377
18.4855
19.538
20.595
21.6564
22.722
23.7915
24.8649
25.9397
27.0012
28.0506
29.1011
30.1506
31.2008
32.2516
33.3032
34.356
35.4099
36.4653
37.5221
38.5805
39.6404
40.702
41.7652
42.8301
43.8966
44.9647
46.0344
47.1056
48.1784
49.2527
50.3284
51.4055
52.484
53.5639
54.6452
55.7277
56.8114
57.8962
58.9821
60.0688
61.1564
62.2448
63.334
64.4242
65.5153
66.6073
67.7006
68.794
69.8906
70.9815
72.0931
73.1488
74.3683
1.413e-08
2.8262e-08
4.23965e-08
5.64694e-08
7.98701e-08
0.819771
1.94568
3.04127
4.08776
5.11027
6.12639
7.14249
8.15993
9.17957
10.2017
11.2267
12.2545
13.2852
14.3188
15.3552
16.3946
17.4377
18.4855
19.538
20.595
21.6564
22.722
23.7915
24.8649
25.9397
27.0012
28.0506
29.1011
30.1506
31.2008
32.2516
33.3032
34.356
35.4099
36.4653
37.5221
38.5805
39.6404
40.702
41.7652
42.8301
43.8966
44.9647
46.0344
47.1056
48.1784
49.2527
50.3284
51.4055
52.484
53.5639
54.6452
55.7277
56.8114
57.8962
58.9821
60.0688
61.1564
62.2448
63.334
64.4242
65.5153
66.6073
67.7006
68.794
69.8906
70.9815
72.0931
73.1488
74.3683
)
;
    }
}


// ************************************************************************* //
