/*--------------------------------*- C++ -*----------------------------------*\
| =========                 |                                                 |
| \\      /  F ield         | OpenFOAM: The Open Source CFD Toolbox           |
|  \\    /   O peration     | Version:  2406                                  |
|   \\  /    A nd           | Website:  www.openfoam.com                      |
|    \\/     M anipulation  |                                                 |
\*---------------------------------------------------------------------------*/
FoamFile
{
    version     2.0;
    format      ascii;
    arch        "LSB;label=32;scalar=64";
    class       volScalarField;
    location    "30/fluidRegion";
    object      dgdt.vapour;
}
// * * * * * * * * * * * * * * * * * * * * * * * * * * * * * * * * * * * * * //

dimensions      [0 0 -1 0 0 0 0];

internalField   nonuniform List<scalar> 
75
(
2.53662e-08
2.53688e-08
2.53713e-08
2.53739e-08
4.35399e-08
1.6766
1.74241
1.7927
1.69856
1.67536
1.66808
1.66593
1.66616
1.66771
1.67009
1.673
1.67628
1.6798
1.68348
1.68725
1.69107
1.6972
1.70453
1.71165
1.71853
1.72513
1.73145
1.73746
1.74316
1.74852
1.73992
1.71651
1.70839
1.70518
1.70423
1.70455
1.70566
1.70728
1.70925
1.71146
1.71385
1.71635
1.71894
1.72157
1.72423
1.72689
1.72956
1.7322
1.73481
1.73739
1.73992
1.74239
1.74481
1.74716
1.74944
1.75166
1.75381
1.7559
1.75792
1.75989
1.76179
1.76364
1.76544
1.76718
1.76885
1.77047
1.77203
1.77353
1.77496
1.77633
1.77761
1.77891
1.77992
1.78149
1.78424
)
;

boundaryField
{
    inlet
    {
        type            calculated;
        value           uniform 2.53662e-08;
    }
    outlet
    {
        type            calculated;
        value           uniform 1.78424;
    }
    fixedWalls
    {
        type            calculated;
        value           nonuniform List<scalar> 
300
(
2.53662e-08
2.53688e-08
2.53713e-08
2.53739e-08
4.35399e-08
1.6766
1.74241
1.7927
1.69856
1.67536
1.66808
1.66593
1.66616
1.66771
1.67009
1.673
1.67628
1.6798
1.68348
1.68725
1.69107
1.6972
1.70453
1.71165
1.71853
1.72513
1.73145
1.73746
1.74316
1.74852
1.73992
1.71651
1.70839
1.70518
1.70423
1.70455
1.70566
1.70728
1.70925
1.71146
1.71385
1.71635
1.71894
1.72157
1.72423
1.72689
1.72956
1.7322
1.73481
1.73739
1.73992
1.74239
1.74481
1.74716
1.74944
1.75166
1.75381
1.7559
1.75792
1.75989
1.76179
1.76364
1.76544
1.76718
1.76885
1.77047
1.77203
1.77353
1.77496
1.77633
1.77761
1.77891
1.77992
1.78149
1.78424
2.53662e-08
2.53688e-08
2.53713e-08
2.53739e-08
4.35399e-08
1.6766
1.74241
1.7927
1.69856
1.67536
1.66808
1.66593
1.66616
1.66771
1.67009
1.673
1.67628
1.6798
1.68348
1.68725
1.69107
1.6972
1.70453
1.71165
1.71853
1.72513
1.73145
1.73746
1.74316
1.74852
1.73992
1.71651
1.70839
1.70518
1.70423
1.70455
1.70566
1.70728
1.70925
1.71146
1.71385
1.71635
1.71894
1.72157
1.72423
1.72689
1.72956
1.7322
1.73481
1.73739
1.73992
1.74239
1.74481
1.74716
1.74944
1.75166
1.75381
1.7559
1.75792
1.75989
1.76179
1.76364
1.76544
1.76718
1.76885
1.77047
1.77203
1.77353
1.77496
1.77633
1.77761
1.77891
1.77992
1.78149
1.78424
2.53662e-08
2.53688e-08
2.53713e-08
2.53739e-08
4.35399e-08
1.6766
1.74241
1.7927
1.69856
1.67536
1.66808
1.66593
1.66616
1.66771
1.67009
1.673
1.67628
1.6798
1.68348
1.68725
1.69107
1.6972
1.70453
1.71165
1.71853
1.72513
1.73145
1.73746
1.74316
1.74852
1.73992
1.71651
1.70839
1.70518
1.70423
1.70455
1.70566
1.70728
1.70925
1.71146
1.71385
1.71635
1.71894
1.72157
1.72423
1.72689
1.72956
1.7322
1.73481
1.73739
1.73992
1.74239
1.74481
1.74716
1.74944
1.75166
1.75381
1.7559
1.75792
1.75989
1.76179
1.76364
1.76544
1.76718
1.76885
1.77047
1.77203
1.77353
1.77496
1.77633
1.77761
1.77891
1.77992
1.78149
1.78424
2.53662e-08
2.53688e-08
2.53713e-08
2.53739e-08
4.35399e-08
1.6766
1.74241
1.7927
1.69856
1.67536
1.66808
1.66593
1.66616
1.66771
1.67009
1.673
1.67628
1.6798
1.68348
1.68725
1.69107
1.6972
1.70453
1.71165
1.71853
1.72513
1.73145
1.73746
1.74316
1.74852
1.73992
1.71651
1.70839
1.70518
1.70423
1.70455
1.70566
1.70728
1.70925
1.71146
1.71385
1.71635
1.71894
1.72157
1.72423
1.72689
1.72956
1.7322
1.73481
1.73739
1.73992
1.74239
1.74481
1.74716
1.74944
1.75166
1.75381
1.7559
1.75792
1.75989
1.76179
1.76364
1.76544
1.76718
1.76885
1.77047
1.77203
1.77353
1.77496
1.77633
1.77761
1.77891
1.77992
1.78149
1.78424
)
;
    }
}


// ************************************************************************* //
