/*--------------------------------*- C++ -*----------------------------------*\
| =========                 |                                                 |
| \\      /  F ield         | OpenFOAM: The Open Source CFD Toolbox           |
|  \\    /   O peration     | Version:  2406                                  |
|   \\  /    A nd           | Website:  www.openfoam.com                      |
|    \\/     M anipulation  |                                                 |
\*---------------------------------------------------------------------------*/
FoamFile
{
    version     2.0;
    format      ascii;
    arch        "LSB;label=32;scalar=64";
    class       volTensorField;
    location    "30/fluidRegion";
    object      Kd.liquid.structure;
}
// * * * * * * * * * * * * * * * * * * * * * * * * * * * * * * * * * * * * * //

dimensions      [1 -3 -1 0 0 0 0];

internalField   nonuniform List<tensor> 
75
(
(217.241 0 0 0 217.241 0 0 0 217.241)
(217.241 0 0 0 217.241 0 0 0 217.241)
(217.241 0 0 0 217.241 0 0 0 217.241)
(217.241 0 0 0 217.241 0 0 0 217.241)
(217.241 0 0 0 217.241 0 0 0 217.241)
(347.034 0 0 0 347.034 0 0 0 347.034)
(496.955 0 0 0 496.955 0 0 0 496.955)
(619.282 0 0 0 619.282 0 0 0 619.282)
(723.231 0 0 0 723.231 0 0 0 723.231)
(815.446 0 0 0 815.446 0 0 0 815.446)
(900.339 0 0 0 900.339 0 0 0 900.339)
(979.954 0 0 0 979.954 0 0 0 979.954)
(1055.37 0 0 0 1055.37 0 0 0 1055.37)
(1127.37 0 0 0 1127.37 0 0 0 1127.37)
(1196.49 0 0 0 1196.49 0 0 0 1196.49)
(1263.16 0 0 0 1263.16 0 0 0 1263.16)
(1327.72 0 0 0 1327.72 0 0 0 1327.72)
(1390.44 0 0 0 1390.44 0 0 0 1390.44)
(1451.53 0 0 0 1451.53 0 0 0 1451.53)
(1511.18 0 0 0 1511.18 0 0 0 1511.18)
(1569.53 0 0 0 1569.53 0 0 0 1569.53)
(1626.76 0 0 0 1626.76 0 0 0 1626.76)
(1683.02 0 0 0 1683.02 0 0 0 1683.02)
(1738.42 0 0 0 1738.42 0 0 0 1738.42)
(1793.04 0 0 0 1793.04 0 0 0 1793.04)
(1846.94 0 0 0 1846.94 0 0 0 1846.94)
(1900.18 0 0 0 1900.18 0 0 0 1900.18)
(1952.82 0 0 0 1952.82 0 0 0 1952.82)
(2004.87 0 0 0 2004.87 0 0 0 2004.87)
(2056.53 0 0 0 2056.53 0 0 0 2056.53)
(2118.6 0 0 0 2118.6 0 0 0 2118.6)
(2212.15 0 0 0 2212.15 0 0 0 2212.15)
(2306.24 0 0 0 2306.24 0 0 0 2306.24)
(2400.91 0 0 0 2400.91 0 0 0 2400.91)
(2496.5 0 0 0 2496.5 0 0 0 2496.5)
(2593.08 0 0 0 2593.08 0 0 0 2593.08)
(2690.74 0 0 0 2690.74 0 0 0 2690.74)
(2789.52 0 0 0 2789.52 0 0 0 2789.52)
(2889.47 0 0 0 2889.47 0 0 0 2889.47)
(2990.61 0 0 0 2990.61 0 0 0 2990.61)
(3092.96 0 0 0 3092.96 0 0 0 3092.96)
(3196.54 0 0 0 3196.54 0 0 0 3196.54)
(3301.37 0 0 0 3301.37 0 0 0 3301.37)
(3407.46 0 0 0 3407.46 0 0 0 3407.46)
(3514.84 0 0 0 3514.84 0 0 0 3514.84)
(3623.51 0 0 0 3623.51 0 0 0 3623.51)
(3733.49 0 0 0 3733.49 0 0 0 3733.49)
(3844.78 0 0 0 3844.78 0 0 0 3844.78)
(3957.41 0 0 0 3957.41 0 0 0 3957.41)
(4071.38 0 0 0 4071.38 0 0 0 4071.38)
(4186.7 0 0 0 4186.7 0 0 0 4186.7)
(4303.4 0 0 0 4303.4 0 0 0 4303.4)
(4421.48 0 0 0 4421.48 0 0 0 4421.48)
(4540.96 0 0 0 4540.96 0 0 0 4540.96)
(4661.87 0 0 0 4661.87 0 0 0 4661.87)
(4784.23 0 0 0 4784.23 0 0 0 4784.23)
(4908.07 0 0 0 4908.07 0 0 0 4908.07)
(5033.39 0 0 0 5033.39 0 0 0 5033.39)
(5160.21 0 0 0 5160.21 0 0 0 5160.21)
(5288.51 0 0 0 5288.51 0 0 0 5288.51)
(5418.3 0 0 0 5418.3 0 0 0 5418.3)
(5549.55 0 0 0 5549.55 0 0 0 5549.55)
(5682.27 0 0 0 5682.27 0 0 0 5682.27)
(5816.47 0 0 0 5816.47 0 0 0 5816.47)
(5952.19 0 0 0 5952.19 0 0 0 5952.19)
(6089.5 0 0 0 6089.5 0 0 0 6089.5)
(6228.48 0 0 0 6228.48 0 0 0 6228.48)
(6369.16 0 0 0 6369.16 0 0 0 6369.16)
(6511.75 0 0 0 6511.75 0 0 0 6511.75)
(6655.87 0 0 0 6655.87 0 0 0 6655.87)
(6802.76 0 0 0 6802.76 0 0 0 6802.76)
(6948.91 0 0 0 6948.91 0 0 0 6948.91)
(7105.34 0 0 0 7105.34 0 0 0 7105.34)
(7239.97 0 0 0 7239.97 0 0 0 7239.97)
(7446.09 0 0 0 7446.09 0 0 0 7446.09)
)
;

boundaryField
{
    inlet
    {
        type            zeroGradient;
    }
    outlet
    {
        type            zeroGradient;
    }
    fixedWalls
    {
        type            zeroGradient;
    }
}


// ************************************************************************* //
