/*--------------------------------*- C++ -*----------------------------------*\
| =========                 |                                                 |
| \\      /  F ield         | OpenFOAM: The Open Source CFD Toolbox           |
|  \\    /   O peration     | Version:  2406                                  |
|   \\  /    A nd           | Website:  www.openfoam.com                      |
|    \\/     M anipulation  |                                                 |
\*---------------------------------------------------------------------------*/
FoamFile
{
    version     2.0;
    format      ascii;
    arch        "LSB;label=32;scalar=64";
    class       volTensorField;
    location    "30/fluidRegion";
    object      KdTotU;
}
// * * * * * * * * * * * * * * * * * * * * * * * * * * * * * * * * * * * * * //

dimensions      [1 -2 -2 0 0 0 0];

internalField   nonuniform List<tensor> 
75
(
(123.371 0 0 0 123.371 0 0 0 123.371)
(123.371 0 0 0 123.371 0 0 0 123.371)
(123.371 0 0 0 123.371 0 0 0 123.371)
(123.371 0 0 0 123.371 0 0 0 123.371)
(123.371 0 0 0 123.371 0 0 0 123.371)
(204.398 0 0 0 204.398 0 0 0 204.398)
(311.448 0 0 0 311.448 0 0 0 311.448)
(407.92 0 0 0 407.92 0 0 0 407.92)
(497.181 0 0 0 497.181 0 0 0 497.181)
(581.483 0 0 0 581.483 0 0 0 581.483)
(663.178 0 0 0 663.178 0 0 0 663.178)
(743.099 0 0 0 743.099 0 0 0 743.099)
(821.576 0 0 0 821.576 0 0 0 821.576)
(898.825 0 0 0 898.825 0 0 0 898.825)
(974.984 0 0 0 974.984 0 0 0 974.984)
(1050.16 0 0 0 1050.16 0 0 0 1050.16)
(1124.42 0 0 0 1124.42 0 0 0 1124.42)
(1197.83 0 0 0 1197.83 0 0 0 1197.83)
(1270.45 0 0 0 1270.45 0 0 0 1270.45)
(1342.3 0 0 0 1342.3 0 0 0 1342.3)
(1413.43 0 0 0 1413.43 0 0 0 1413.43)
(1483.91 0 0 0 1483.91 0 0 0 1483.91)
(1553.82 0 0 0 1553.82 0 0 0 1553.82)
(1623.21 0 0 0 1623.21 0 0 0 1623.21)
(1692.06 0 0 0 1692.06 0 0 0 1692.06)
(1760.4 0 0 0 1760.4 0 0 0 1760.4)
(1828.21 0 0 0 1828.21 0 0 0 1828.21)
(1895.49 0 0 0 1895.49 0 0 0 1895.49)
(1962.23 0 0 0 1962.23 0 0 0 1962.23)
(2028.43 0 0 0 2028.43 0 0 0 2028.43)
(2103.67 0 0 0 2103.67 0 0 0 2103.67)
(2207.99 0 0 0 2207.99 0 0 0 2207.99)
(2311.22 0 0 0 2311.22 0 0 0 2311.22)
(2414.2 0 0 0 2414.2 0 0 0 2414.2)
(2517.49 0 0 0 2517.49 0 0 0 2517.49)
(2621.27 0 0 0 2621.27 0 0 0 2621.27)
(2725.68 0 0 0 2725.68 0 0 0 2725.68)
(2830.74 0 0 0 2830.74 0 0 0 2830.74)
(2936.45 0 0 0 2936.45 0 0 0 2936.45)
(3042.81 0 0 0 3042.81 0 0 0 3042.81)
(3149.79 0 0 0 3149.79 0 0 0 3149.79)
(3257.37 0 0 0 3257.37 0 0 0 3257.37)
(3365.51 0 0 0 3365.51 0 0 0 3365.51)
(3474.18 0 0 0 3474.18 0 0 0 3474.18)
(3583.34 0 0 0 3583.34 0 0 0 3583.34)
(3692.97 0 0 0 3692.97 0 0 0 3692.97)
(3803.03 0 0 0 3803.03 0 0 0 3803.03)
(3913.49 0 0 0 3913.49 0 0 0 3913.49)
(4024.32 0 0 0 4024.32 0 0 0 4024.32)
(4135.47 0 0 0 4135.47 0 0 0 4135.47)
(4246.94 0 0 0 4246.94 0 0 0 4246.94)
(4358.67 0 0 0 4358.67 0 0 0 4358.67)
(4470.65 0 0 0 4470.65 0 0 0 4470.65)
(4582.85 0 0 0 4582.85 0 0 0 4582.85)
(4695.22 0 0 0 4695.22 0 0 0 4695.22)
(4807.75 0 0 0 4807.75 0 0 0 4807.75)
(4920.38 0 0 0 4920.38 0 0 0 4920.38)
(5033.1 0 0 0 5033.1 0 0 0 5033.1)
(5145.87 0 0 0 5145.87 0 0 0 5145.87)
(5258.68 0 0 0 5258.68 0 0 0 5258.68)
(5371.5 0 0 0 5371.5 0 0 0 5371.5)
(5484.33 0 0 0 5484.33 0 0 0 5484.33)
(5597.18 0 0 0 5597.18 0 0 0 5597.18)
(5710.03 0 0 0 5710.03 0 0 0 5710.03)
(5822.87 0 0 0 5822.87 0 0 0 5822.87)
(5935.66 0 0 0 5935.66 0 0 0 5935.66)
(6048.39 0 0 0 6048.39 0 0 0 6048.39)
(6160.92 0 0 0 6160.92 0 0 0 6160.92)
(6273.38 0 0 0 6273.38 0 0 0 6273.38)
(6385.23 0 0 0 6385.23 0 0 0 6385.23)
(6497.83 0 0 0 6497.83 0 0 0 6497.83)
(6606.96 0 0 0 6606.96 0 0 0 6606.96)
(6724.94 0 0 0 6724.94 0 0 0 6724.94)
(6815.77 0 0 0 6815.77 0 0 0 6815.77)
(6980.52 0 0 0 6980.52 0 0 0 6980.52)
)
;

boundaryField
{
    inlet
    {
        type            zeroGradient;
    }
    outlet
    {
        type            zeroGradient;
    }
    fixedWalls
    {
        type            zeroGradient;
    }
}


// ************************************************************************* //
