/*--------------------------------*- C++ -*----------------------------------*\
| =========                 |                                                 |
| \\      /  F ield         | OpenFOAM: The Open Source CFD Toolbox           |
|  \\    /   O peration     | Version:  2406                                  |
|   \\  /    A nd           | Website:  www.openfoam.com                      |
|    \\/     M anipulation  |                                                 |
\*---------------------------------------------------------------------------*/
FoamFile
{
    version     2.0;
    format      ascii;
    arch        "LSB;label=32;scalar=64";
    class       volScalarField;
    location    "30/fluidRegion";
    object      p;
}
// * * * * * * * * * * * * * * * * * * * * * * * * * * * * * * * * * * * * * //

dimensions      [1 -1 -2 0 0 0 0];

internalField   nonuniform List<scalar> 
75
(
7.21151e+06
7.21151e+06
7.2115e+06
7.2115e+06
7.21149e+06
7.21149e+06
7.21146e+06
7.21143e+06
7.21139e+06
7.21136e+06
7.21131e+06
7.21127e+06
7.21122e+06
7.21117e+06
7.21112e+06
7.21106e+06
7.211e+06
7.21094e+06
7.21088e+06
7.21081e+06
7.21073e+06
7.21066e+06
7.21058e+06
7.2105e+06
7.21041e+06
7.21032e+06
7.21023e+06
7.21014e+06
7.21004e+06
7.20994e+06
7.20983e+06
7.20972e+06
7.20961e+06
7.20949e+06
7.20937e+06
7.20924e+06
7.20911e+06
7.20897e+06
7.20883e+06
7.20868e+06
7.20853e+06
7.20837e+06
7.20821e+06
7.20804e+06
7.20786e+06
7.20769e+06
7.2075e+06
7.20731e+06
7.20712e+06
7.20692e+06
7.20671e+06
7.2065e+06
7.20629e+06
7.20607e+06
7.20584e+06
7.20561e+06
7.20537e+06
7.20513e+06
7.20488e+06
7.20463e+06
7.20437e+06
7.2041e+06
7.20383e+06
7.20356e+06
7.20328e+06
7.20299e+06
7.2027e+06
7.2024e+06
7.2021e+06
7.20179e+06
7.20148e+06
7.20116e+06
7.20084e+06
7.20051e+06
7.20017e+06
)
;

boundaryField
{
    inlet
    {
        type            calculated;
        value           uniform 7.21152e+06;
    }
    outlet
    {
        type            calculated;
        value           uniform 7.2e+06;
    }
    fixedWalls
    {
        type            calculated;
        value           nonuniform List<scalar> 
300
(
7.21151e+06
7.21151e+06
7.2115e+06
7.2115e+06
7.21149e+06
7.21149e+06
7.21146e+06
7.21143e+06
7.21139e+06
7.21136e+06
7.21131e+06
7.21127e+06
7.21122e+06
7.21117e+06
7.21112e+06
7.21106e+06
7.211e+06
7.21094e+06
7.21088e+06
7.21081e+06
7.21073e+06
7.21066e+06
7.21058e+06
7.2105e+06
7.21041e+06
7.21032e+06
7.21023e+06
7.21014e+06
7.21004e+06
7.20994e+06
7.20983e+06
7.20972e+06
7.20961e+06
7.20949e+06
7.20937e+06
7.20924e+06
7.20911e+06
7.20897e+06
7.20883e+06
7.20868e+06
7.20853e+06
7.20837e+06
7.20821e+06
7.20804e+06
7.20786e+06
7.20769e+06
7.2075e+06
7.20731e+06
7.20712e+06
7.20692e+06
7.20671e+06
7.2065e+06
7.20629e+06
7.20607e+06
7.20584e+06
7.20561e+06
7.20537e+06
7.20513e+06
7.20488e+06
7.20463e+06
7.20437e+06
7.2041e+06
7.20383e+06
7.20356e+06
7.20328e+06
7.20299e+06
7.2027e+06
7.2024e+06
7.2021e+06
7.20179e+06
7.20148e+06
7.20116e+06
7.20084e+06
7.20051e+06
7.20017e+06
7.21151e+06
7.21151e+06
7.2115e+06
7.2115e+06
7.21149e+06
7.21149e+06
7.21146e+06
7.21143e+06
7.21139e+06
7.21136e+06
7.21131e+06
7.21127e+06
7.21122e+06
7.21117e+06
7.21112e+06
7.21106e+06
7.211e+06
7.21094e+06
7.21088e+06
7.21081e+06
7.21073e+06
7.21066e+06
7.21058e+06
7.2105e+06
7.21041e+06
7.21032e+06
7.21023e+06
7.21014e+06
7.21004e+06
7.20994e+06
7.20983e+06
7.20972e+06
7.20961e+06
7.20949e+06
7.20937e+06
7.20924e+06
7.20911e+06
7.20897e+06
7.20883e+06
7.20868e+06
7.20853e+06
7.20837e+06
7.20821e+06
7.20804e+06
7.20786e+06
7.20769e+06
7.2075e+06
7.20731e+06
7.20712e+06
7.20692e+06
7.20671e+06
7.2065e+06
7.20629e+06
7.20607e+06
7.20584e+06
7.20561e+06
7.20537e+06
7.20513e+06
7.20488e+06
7.20463e+06
7.20437e+06
7.2041e+06
7.20383e+06
7.20356e+06
7.20328e+06
7.20299e+06
7.2027e+06
7.2024e+06
7.2021e+06
7.20179e+06
7.20148e+06
7.20116e+06
7.20084e+06
7.20051e+06
7.20017e+06
7.21151e+06
7.21151e+06
7.2115e+06
7.2115e+06
7.21149e+06
7.21149e+06
7.21146e+06
7.21143e+06
7.21139e+06
7.21136e+06
7.21131e+06
7.21127e+06
7.21122e+06
7.21117e+06
7.21112e+06
7.21106e+06
7.211e+06
7.21094e+06
7.21088e+06
7.21081e+06
7.21073e+06
7.21066e+06
7.21058e+06
7.2105e+06
7.21041e+06
7.21032e+06
7.21023e+06
7.21014e+06
7.21004e+06
7.20994e+06
7.20983e+06
7.20972e+06
7.20961e+06
7.20949e+06
7.20937e+06
7.20924e+06
7.20911e+06
7.20897e+06
7.20883e+06
7.20868e+06
7.20853e+06
7.20837e+06
7.20821e+06
7.20804e+06
7.20786e+06
7.20769e+06
7.2075e+06
7.20731e+06
7.20712e+06
7.20692e+06
7.20671e+06
7.2065e+06
7.20629e+06
7.20607e+06
7.20584e+06
7.20561e+06
7.20537e+06
7.20513e+06
7.20488e+06
7.20463e+06
7.20437e+06
7.2041e+06
7.20383e+06
7.20356e+06
7.20328e+06
7.20299e+06
7.2027e+06
7.2024e+06
7.2021e+06
7.20179e+06
7.20148e+06
7.20116e+06
7.20084e+06
7.20051e+06
7.20017e+06
7.21151e+06
7.21151e+06
7.2115e+06
7.2115e+06
7.21149e+06
7.21149e+06
7.21146e+06
7.21143e+06
7.21139e+06
7.21136e+06
7.21131e+06
7.21127e+06
7.21122e+06
7.21117e+06
7.21112e+06
7.21106e+06
7.211e+06
7.21094e+06
7.21088e+06
7.21081e+06
7.21073e+06
7.21066e+06
7.21058e+06
7.2105e+06
7.21041e+06
7.21032e+06
7.21023e+06
7.21014e+06
7.21004e+06
7.20994e+06
7.20983e+06
7.20972e+06
7.20961e+06
7.20949e+06
7.20937e+06
7.20924e+06
7.20911e+06
7.20897e+06
7.20883e+06
7.20868e+06
7.20853e+06
7.20837e+06
7.20821e+06
7.20804e+06
7.20786e+06
7.20769e+06
7.2075e+06
7.20731e+06
7.20712e+06
7.20692e+06
7.20671e+06
7.2065e+06
7.20629e+06
7.20607e+06
7.20584e+06
7.20561e+06
7.20537e+06
7.20513e+06
7.20488e+06
7.20463e+06
7.20437e+06
7.2041e+06
7.20383e+06
7.20356e+06
7.20328e+06
7.20299e+06
7.2027e+06
7.2024e+06
7.2021e+06
7.20179e+06
7.20148e+06
7.20116e+06
7.20084e+06
7.20051e+06
7.20017e+06
)
;
    }
}


// ************************************************************************* //
