/*--------------------------------*- C++ -*----------------------------------*\
| =========                 |                                                 |
| \\      /  F ield         | OpenFOAM: The Open Source CFD Toolbox           |
|  \\    /   O peration     | Version:  2406                                  |
|   \\  /    A nd           | Website:  www.openfoam.com                      |
|    \\/     M anipulation  |                                                 |
\*---------------------------------------------------------------------------*/
FoamFile
{
    version     2.0;
    format      ascii;
    arch        "LSB;label=32;scalar=64";
    class       volScalarField;
    location    "30/fluidRegion";
    object      alphaRhoMagU.vapour;
}
// * * * * * * * * * * * * * * * * * * * * * * * * * * * * * * * * * * * * * //

dimensions      [1 -2 -1 0 0 0 0];

internalField   nonuniform List<scalar> 
75
(
0
0
0
0
0
0
0.109551
0.756939
1.88554
3.45987
5.5589
9.02259
13.3898
17.9242
22.369
26.6922
30.8866
34.9575
38.9078
42.7444
46.4692
50.0865
53.5832
56.9286
60.14
63.2325
66.2025
69.0569
71.7993
74.4339
76.9637
79.3926
81.7246
83.9641
86.1147
88.18
90.1631
92.0671
93.8948
95.6489
97.332
98.9464
100.495
101.979
103.401
104.763
106.067
107.316
108.511
109.654
110.745
111.787
112.78
113.727
114.627
115.483
116.296
117.067
117.796
118.486
119.137
119.749
120.324
120.863
121.366
121.833
122.264
122.661
123.024
123.353
123.649
123.915
124.152
124.355
124.563
)
;

boundaryField
{
    inlet
    {
        type            calculated;
        value           uniform 0;
    }
    outlet
    {
        type            calculated;
        value           uniform 124.554;
    }
    fixedWalls
    {
        type            calculated;
        value           nonuniform List<scalar> 
300
(
0
0
0
0
0
0
0.109551
0.756939
1.88554
3.45987
5.5589
9.02259
13.3898
17.9242
22.369
26.6922
30.8866
34.9575
38.9078
42.7444
46.4692
50.0865
53.5832
56.9286
60.14
63.2325
66.2025
69.0569
71.7993
74.4339
76.9637
79.3926
81.7246
83.9641
86.1147
88.18
90.1631
92.0671
93.8948
95.6489
97.332
98.9464
100.495
101.979
103.401
104.763
106.067
107.316
108.511
109.654
110.745
111.787
112.78
113.727
114.627
115.483
116.296
117.067
117.796
118.486
119.137
119.749
120.324
120.863
121.366
121.833
122.264
122.661
123.024
123.353
123.649
123.915
124.152
124.355
124.563
0
0
0
0
0
0
0.109551
0.756939
1.88554
3.45987
5.5589
9.02259
13.3898
17.9242
22.369
26.6922
30.8866
34.9575
38.9078
42.7444
46.4692
50.0865
53.5832
56.9286
60.14
63.2325
66.2025
69.0569
71.7993
74.4339
76.9637
79.3926
81.7246
83.9641
86.1147
88.18
90.1631
92.0671
93.8948
95.6489
97.332
98.9464
100.495
101.979
103.401
104.763
106.067
107.316
108.511
109.654
110.745
111.787
112.78
113.727
114.627
115.483
116.296
117.067
117.796
118.486
119.137
119.749
120.324
120.863
121.366
121.833
122.264
122.661
123.024
123.353
123.649
123.915
124.152
124.355
124.563
0
0
0
0
0
0
0.109551
0.756939
1.88554
3.45987
5.5589
9.02259
13.3898
17.9242
22.369
26.6922
30.8866
34.9575
38.9078
42.7444
46.4692
50.0865
53.5832
56.9286
60.14
63.2325
66.2025
69.0569
71.7993
74.4339
76.9637
79.3926
81.7246
83.9641
86.1147
88.18
90.1631
92.0671
93.8948
95.6489
97.332
98.9464
100.495
101.979
103.401
104.763
106.067
107.316
108.511
109.654
110.745
111.787
112.78
113.727
114.627
115.483
116.296
117.067
117.796
118.486
119.137
119.749
120.324
120.863
121.366
121.833
122.264
122.661
123.024
123.353
123.649
123.915
124.152
124.355
124.563
0
0
0
0
0
0
0.109551
0.756939
1.88554
3.45987
5.5589
9.02259
13.3898
17.9242
22.369
26.6922
30.8866
34.9575
38.9078
42.7444
46.4692
50.0865
53.5832
56.9286
60.14
63.2325
66.2025
69.0569
71.7993
74.4339
76.9637
79.3926
81.7246
83.9641
86.1147
88.18
90.1631
92.0671
93.8948
95.6489
97.332
98.9464
100.495
101.979
103.401
104.763
106.067
107.316
108.511
109.654
110.745
111.787
112.78
113.727
114.627
115.483
116.296
117.067
117.796
118.486
119.137
119.749
120.324
120.863
121.366
121.833
122.264
122.661
123.024
123.353
123.649
123.915
124.152
124.355
124.563
)
;
    }
}


// ************************************************************************* //
