/*--------------------------------*- C++ -*----------------------------------*\
| =========                 |                                                 |
| \\      /  F ield         | OpenFOAM: The Open Source CFD Toolbox           |
|  \\    /   O peration     | Version:  2406                                  |
|   \\  /    A nd           | Website:  www.openfoam.com                      |
|    \\/     M anipulation  |                                                 |
\*---------------------------------------------------------------------------*/
FoamFile
{
    version     2.0;
    format      ascii;
    arch        "LSB;label=32;scalar=64";
    class       volScalarField;
    location    "30/fluidRegion";
    object      dgdt.vapour;
}
// * * * * * * * * * * * * * * * * * * * * * * * * * * * * * * * * * * * * * //

dimensions      [0 0 -1 0 0 0 0];

internalField   nonuniform List<scalar> 
75
(
-0
-0
-0
-0
-0
-0
0.186621
1.17544
1.90967
2.66714
3.52352
6.36405
7.36187
7.39014
7.21872
7.01124
6.78772
6.57967
6.37247
6.18344
5.99316
5.81259
5.63793
5.41264
5.17569
4.95442
4.74744
4.55585
4.37238
4.19846
4.02955
3.86811
3.71436
3.5674
3.42656
3.29129
3.16118
3.03588
2.91509
2.79859
2.68612
2.5775
2.47256
2.37114
2.27312
2.17842
2.08701
2.00018
1.91433
1.83084
1.7497
1.67086
1.59425
1.51977
1.44731
1.37678
1.30806
1.24108
1.17574
1.11193
1.04958
0.988603
0.928916
0.870443
0.813112
0.756853
0.701593
0.64726
0.59378
0.541068
0.48902
0.437501
0.386309
0.335143
0.296946
)
;

boundaryField
{
    inlet
    {
        type            calculated;
        value           uniform -0;
    }
    outlet
    {
        type            calculated;
        value           uniform 0.296946;
    }
    fixedWalls
    {
        type            calculated;
        value           nonuniform List<scalar> 
300
(
-0
-0
-0
-0
-0
-0
0.186621
1.17544
1.90967
2.66714
3.52352
6.36405
7.36187
7.39014
7.21872
7.01124
6.78772
6.57967
6.37247
6.18344
5.99316
5.81259
5.63793
5.41264
5.17569
4.95442
4.74744
4.55585
4.37238
4.19846
4.02955
3.86811
3.71436
3.5674
3.42656
3.29129
3.16118
3.03588
2.91509
2.79859
2.68612
2.5775
2.47256
2.37114
2.27312
2.17842
2.08701
2.00018
1.91433
1.83084
1.7497
1.67086
1.59425
1.51977
1.44731
1.37678
1.30806
1.24108
1.17574
1.11193
1.04958
0.988603
0.928916
0.870443
0.813112
0.756853
0.701593
0.64726
0.59378
0.541068
0.48902
0.437501
0.386309
0.335143
0.296946
-0
-0
-0
-0
-0
-0
0.186621
1.17544
1.90967
2.66714
3.52352
6.36405
7.36187
7.39014
7.21872
7.01124
6.78772
6.57967
6.37247
6.18344
5.99316
5.81259
5.63793
5.41264
5.17569
4.95442
4.74744
4.55585
4.37238
4.19846
4.02955
3.86811
3.71436
3.5674
3.42656
3.29129
3.16118
3.03588
2.91509
2.79859
2.68612
2.5775
2.47256
2.37114
2.27312
2.17842
2.08701
2.00018
1.91433
1.83084
1.7497
1.67086
1.59425
1.51977
1.44731
1.37678
1.30806
1.24108
1.17574
1.11193
1.04958
0.988603
0.928916
0.870443
0.813112
0.756853
0.701593
0.64726
0.59378
0.541068
0.48902
0.437501
0.386309
0.335143
0.296946
-0
-0
-0
-0
-0
-0
0.186621
1.17544
1.90967
2.66714
3.52352
6.36405
7.36187
7.39014
7.21872
7.01124
6.78772
6.57967
6.37247
6.18344
5.99316
5.81259
5.63793
5.41264
5.17569
4.95442
4.74744
4.55585
4.37238
4.19846
4.02955
3.86811
3.71436
3.5674
3.42656
3.29129
3.16118
3.03588
2.91509
2.79859
2.68612
2.5775
2.47256
2.37114
2.27312
2.17842
2.08701
2.00018
1.91433
1.83084
1.7497
1.67086
1.59425
1.51977
1.44731
1.37678
1.30806
1.24108
1.17574
1.11193
1.04958
0.988603
0.928916
0.870443
0.813112
0.756853
0.701593
0.64726
0.59378
0.541068
0.48902
0.437501
0.386309
0.335143
0.296946
-0
-0
-0
-0
-0
-0
0.186621
1.17544
1.90967
2.66714
3.52352
6.36405
7.36187
7.39014
7.21872
7.01124
6.78772
6.57967
6.37247
6.18344
5.99316
5.81259
5.63793
5.41264
5.17569
4.95442
4.74744
4.55585
4.37238
4.19846
4.02955
3.86811
3.71436
3.5674
3.42656
3.29129
3.16118
3.03588
2.91509
2.79859
2.68612
2.5775
2.47256
2.37114
2.27312
2.17842
2.08701
2.00018
1.91433
1.83084
1.7497
1.67086
1.59425
1.51977
1.44731
1.37678
1.30806
1.24108
1.17574
1.11193
1.04958
0.988603
0.928916
0.870443
0.813112
0.756853
0.701593
0.64726
0.59378
0.541068
0.48902
0.437501
0.386309
0.335143
0.296946
)
;
    }
}


// ************************************************************************* //
