/*--------------------------------*- C++ -*----------------------------------*\
| =========                 |                                                 |
| \\      /  F ield         | OpenFOAM: The Open Source CFD Toolbox           |
|  \\    /   O peration     | Version:  2406                                  |
|   \\  /    A nd           | Website:  www.openfoam.com                      |
|    \\/     M anipulation  |                                                 |
\*---------------------------------------------------------------------------*/
FoamFile
{
    version     2.0;
    format      ascii;
    arch        "LSB;label=32;scalar=64";
    class       volTensorField;
    location    "30/fluidRegion";
    object      Kd.liquid.structure;
}
// * * * * * * * * * * * * * * * * * * * * * * * * * * * * * * * * * * * * * //

dimensions      [1 -3 -1 0 0 0 0];

internalField   nonuniform List<tensor> 
75
(
(418.491 0 0 0 418.491 0 0 0 418.491)
(418.491 0 0 0 418.491 0 0 0 418.491)
(418.491 0 0 0 418.491 0 0 0 418.491)
(418.491 0 0 0 418.491 0 0 0 418.491)
(418.491 0 0 0 418.491 0 0 0 418.491)
(417.907 0 0 0 417.907 0 0 0 417.907)
(437.518 0 0 0 437.518 0 0 0 437.518)
(529.941 0 0 0 529.941 0 0 0 529.941)
(670.188 0 0 0 670.188 0 0 0 670.188)
(840.215 0 0 0 840.215 0 0 0 840.215)
(1037.11 0 0 0 1037.11 0 0 0 1037.11)
(1316.63 0 0 0 1316.63 0 0 0 1316.63)
(1627.02 0 0 0 1627.02 0 0 0 1627.02)
(1908.39 0 0 0 1908.39 0 0 0 1908.39)
(2153.5 0 0 0 2153.5 0 0 0 2153.5)
(2370.68 0 0 0 2370.68 0 0 0 2370.68)
(2566.59 0 0 0 2566.59 0 0 0 2566.59)
(2746.06 0 0 0 2746.06 0 0 0 2746.06)
(2912.41 0 0 0 2912.41 0 0 0 2912.41)
(3068.05 0 0 0 3068.05 0 0 0 3068.05)
(3214.69 0 0 0 3214.69 0 0 0 3214.69)
(3353.44 0 0 0 3353.44 0 0 0 3353.44)
(3486.15 0 0 0 3486.15 0 0 0 3486.15)
(3666.59 0 0 0 3666.59 0 0 0 3666.59)
(3899.78 0 0 0 3899.78 0 0 0 3899.78)
(4125.61 0 0 0 4125.61 0 0 0 4125.61)
(4344.02 0 0 0 4344.02 0 0 0 4344.02)
(4555.7 0 0 0 4555.7 0 0 0 4555.7)
(4760.86 0 0 0 4760.86 0 0 0 4760.86)
(4959.77 0 0 0 4959.77 0 0 0 4959.77)
(5152.5 0 0 0 5152.5 0 0 0 5152.5)
(5339.19 0 0 0 5339.19 0 0 0 5339.19)
(5520.04 0 0 0 5520.04 0 0 0 5520.04)
(5695.21 0 0 0 5695.21 0 0 0 5695.21)
(5864.84 0 0 0 5864.84 0 0 0 5864.84)
(6029.07 0 0 0 6029.07 0 0 0 6029.07)
(6188 0 0 0 6188 0 0 0 6188)
(6341.75 0 0 0 6341.75 0 0 0 6341.75)
(6490.43 0 0 0 6490.43 0 0 0 6490.43)
(6634.12 0 0 0 6634.12 0 0 0 6634.12)
(6772.95 0 0 0 6772.95 0 0 0 6772.95)
(6906.99 0 0 0 6906.99 0 0 0 6906.99)
(7036.35 0 0 0 7036.35 0 0 0 7036.35)
(7161.12 0 0 0 7161.12 0 0 0 7161.12)
(7281.39 0 0 0 7281.39 0 0 0 7281.39)
(7397.27 0 0 0 7397.27 0 0 0 7397.27)
(7508.86 0 0 0 7508.86 0 0 0 7508.86)
(7616.34 0 0 0 7616.34 0 0 0 7616.34)
(7719.7 0 0 0 7719.7 0 0 0 7719.7)
(7819 0 0 0 7819 0 0 0 7819)
(7914.31 0 0 0 7914.31 0 0 0 7914.31)
(8005.71 0 0 0 8005.71 0 0 0 8005.71)
(8093.26 0 0 0 8093.26 0 0 0 8093.26)
(8177.03 0 0 0 8177.03 0 0 0 8177.03)
(8257.08 0 0 0 8257.08 0 0 0 8257.08)
(8333.47 0 0 0 8333.47 0 0 0 8333.47)
(8406.28 0 0 0 8406.28 0 0 0 8406.28)
(8475.56 0 0 0 8475.56 0 0 0 8475.56)
(8541.4 0 0 0 8541.4 0 0 0 8541.4)
(8603.88 0 0 0 8603.88 0 0 0 8603.88)
(8663.08 0 0 0 8663.08 0 0 0 8663.08)
(8719.07 0 0 0 8719.07 0 0 0 8719.07)
(8771.89 0 0 0 8771.89 0 0 0 8771.89)
(8821.56 0 0 0 8821.56 0 0 0 8821.56)
(8868.05 0 0 0 8868.05 0 0 0 8868.05)
(8911.3 0 0 0 8911.3 0 0 0 8911.3)
(8951.25 0 0 0 8951.25 0 0 0 8951.25)
(8987.84 0 0 0 8987.84 0 0 0 8987.84)
(9021.12 0 0 0 9021.12 0 0 0 9021.12)
(9051.16 0 0 0 9051.16 0 0 0 9051.16)
(9078.31 0 0 0 9078.31 0 0 0 9078.31)
(9102.84 0 0 0 9102.84 0 0 0 9102.84)
(9125.47 0 0 0 9125.47 0 0 0 9125.47)
(9144.76 0 0 0 9144.76 0 0 0 9144.76)
(9170.79 0 0 0 9170.79 0 0 0 9170.79)
)
;

boundaryField
{
    inlet
    {
        type            zeroGradient;
    }
    outlet
    {
        type            zeroGradient;
    }
    fixedWalls
    {
        type            zeroGradient;
    }
}


// ************************************************************************* //
