/*--------------------------------*- C++ -*----------------------------------*\
| =========                 |                                                 |
| \\      /  F ield         | OpenFOAM: The Open Source CFD Toolbox           |
|  \\    /   O peration     | Version:  2406                                  |
|   \\  /    A nd           | Website:  www.openfoam.com                      |
|    \\/     M anipulation  |                                                 |
\*---------------------------------------------------------------------------*/
FoamFile
{
    version     2.0;
    format      ascii;
    arch        "LSB;label=32;scalar=64";
    class       volTensorField;
    location    "30/fluidRegion";
    object      KdTotU;
}
// * * * * * * * * * * * * * * * * * * * * * * * * * * * * * * * * * * * * * //

dimensions      [1 -2 -2 0 0 0 0];

internalField   nonuniform List<tensor> 
75
(
(539.427 0 0 0 539.427 0 0 0 539.427)
(539.427 0 0 0 539.427 0 0 0 539.427)
(539.427 0 0 0 539.427 0 0 0 539.427)
(539.427 0 0 0 539.427 0 0 0 539.427)
(539.427 0 0 0 539.427 0 0 0 539.427)
(538.864 0 0 0 538.864 0 0 0 538.864)
(566.26 0 0 0 566.26 0 0 0 566.26)
(697.799 0 0 0 697.799 0 0 0 697.799)
(910.884 0 0 0 910.884 0 0 0 910.884)
(1187.37 0 0 0 1187.37 0 0 0 1187.37)
(1534.35 0 0 0 1534.35 0 0 0 1534.35)
(2064.72 0 0 0 2064.72 0 0 0 2064.72)
(2722.45 0 0 0 2722.45 0 0 0 2722.45)
(3386.66 0 0 0 3386.66 0 0 0 3386.66)
(4019.3 0 0 0 4019.3 0 0 0 4019.3)
(4618.49 0 0 0 4618.49 0 0 0 4618.49)
(5186.09 0 0 0 5186.09 0 0 0 5186.09)
(5724.68 0 0 0 5724.68 0 0 0 5724.68)
(6236.62 0 0 0 6236.62 0 0 0 6236.62)
(6724.06 0 0 0 6724.06 0 0 0 6724.06)
(7188.71 0 0 0 7188.71 0 0 0 7188.71)
(7631.88 0 0 0 7631.88 0 0 0 7631.88)
(8054.9 0 0 0 8054.9 0 0 0 8054.9)
(8576.07 0 0 0 8576.07 0 0 0 8576.07)
(9206.13 0 0 0 9206.13 0 0 0 9206.13)
(9807.46 0 0 0 9807.46 0 0 0 9807.46)
(10382.8 0 0 0 10382.8 0 0 0 10382.8)
(10935.3 0 0 0 10935.3 0 0 0 10935.3)
(11466.6 0 0 0 11466.6 0 0 0 11466.6)
(11977.9 0 0 0 11977.9 0 0 0 11977.9)
(12470 0 0 0 12470 0 0 0 12470)
(12943.5 0 0 0 12943.5 0 0 0 12943.5)
(13399.2 0 0 0 13399.2 0 0 0 13399.2)
(13837.7 0 0 0 13837.7 0 0 0 13837.7)
(14259.8 0 0 0 14259.8 0 0 0 14259.8)
(14665.8 0 0 0 14665.8 0 0 0 14665.8)
(15056.2 0 0 0 15056.2 0 0 0 15056.2)
(15431.6 0 0 0 15431.6 0 0 0 15431.6)
(15792.3 0 0 0 15792.3 0 0 0 15792.3)
(16138.8 0 0 0 16138.8 0 0 0 16138.8)
(16471.5 0 0 0 16471.5 0 0 0 16471.5)
(16790.8 0 0 0 16790.8 0 0 0 16790.8)
(17097.1 0 0 0 17097.1 0 0 0 17097.1)
(17390.8 0 0 0 17390.8 0 0 0 17390.8)
(17672.3 0 0 0 17672.3 0 0 0 17672.3)
(17942 0 0 0 17942 0 0 0 17942)
(18200.2 0 0 0 18200.2 0 0 0 18200.2)
(18447.5 0 0 0 18447.5 0 0 0 18447.5)
(18684.1 0 0 0 18684.1 0 0 0 18684.1)
(18910.2 0 0 0 18910.2 0 0 0 18910.2)
(19126 0 0 0 19126 0 0 0 19126)
(19331.8 0 0 0 19331.8 0 0 0 19331.8)
(19527.9 0 0 0 19527.9 0 0 0 19527.9)
(19714.7 0 0 0 19714.7 0 0 0 19714.7)
(19892.2 0 0 0 19892.2 0 0 0 19892.2)
(20060.9 0 0 0 20060.9 0 0 0 20060.9)
(20220.9 0 0 0 20220.9 0 0 0 20220.9)
(20372.4 0 0 0 20372.4 0 0 0 20372.4)
(20515.7 0 0 0 20515.7 0 0 0 20515.7)
(20650.9 0 0 0 20650.9 0 0 0 20650.9)
(20778.2 0 0 0 20778.2 0 0 0 20778.2)
(20897.8 0 0 0 20897.8 0 0 0 20897.8)
(21009.7 0 0 0 21009.7 0 0 0 21009.7)
(21114.1 0 0 0 21114.1 0 0 0 21114.1)
(21211.2 0 0 0 21211.2 0 0 0 21211.2)
(21301.1 0 0 0 21301.1 0 0 0 21301.1)
(21384 0 0 0 21384 0 0 0 21384)
(21460.4 0 0 0 21460.4 0 0 0 21460.4)
(21530.3 0 0 0 21530.3 0 0 0 21530.3)
(21593.9 0 0 0 21593.9 0 0 0 21593.9)
(21651.5 0 0 0 21651.5 0 0 0 21651.5)
(21702.6 0 0 0 21702.6 0 0 0 21702.6)
(21748.2 0 0 0 21748.2 0 0 0 21748.2)
(21781.2 0 0 0 21781.2 0 0 0 21781.2)
(21829.9 0 0 0 21829.9 0 0 0 21829.9)
)
;

boundaryField
{
    inlet
    {
        type            zeroGradient;
    }
    outlet
    {
        type            zeroGradient;
    }
    fixedWalls
    {
        type            zeroGradient;
    }
}


// ************************************************************************* //
