/*--------------------------------*- C++ -*----------------------------------*\
| =========                 |                                                 |
| \\      /  F ield         | OpenFOAM: The Open Source CFD Toolbox           |
|  \\    /   O peration     | Version:  2406                                  |
|   \\  /    A nd           | Website:  www.openfoam.com                      |
|    \\/     M anipulation  |                                                 |
\*---------------------------------------------------------------------------*/
FoamFile
{
    version     2.0;
    format      ascii;
    arch        "LSB;label=32;scalar=64";
    class       volScalarField;
    location    "30/fluidRegion";
    object      p_rgh;
}
// * * * * * * * * * * * * * * * * * * * * * * * * * * * * * * * * * * * * * //

dimensions      [1 -1 -2 0 0 0 0];

internalField   nonuniform List<scalar> 
75
(
7.24759e+06
7.24757e+06
7.24755e+06
7.24753e+06
7.24751e+06
7.24749e+06
7.24746e+06
7.24743e+06
7.24736e+06
7.24727e+06
7.24715e+06
7.24699e+06
7.24677e+06
7.24651e+06
7.24621e+06
7.24589e+06
7.24555e+06
7.24519e+06
7.24482e+06
7.24442e+06
7.24401e+06
7.24357e+06
7.24313e+06
7.24266e+06
7.24217e+06
7.24166e+06
7.24112e+06
7.24056e+06
7.23998e+06
7.23938e+06
7.23876e+06
7.23812e+06
7.23746e+06
7.23678e+06
7.23608e+06
7.23537e+06
7.23464e+06
7.2339e+06
7.23314e+06
7.23237e+06
7.23159e+06
7.23079e+06
7.22998e+06
7.22916e+06
7.22833e+06
7.22749e+06
7.22664e+06
7.22578e+06
7.22491e+06
7.22403e+06
7.22315e+06
7.22225e+06
7.22135e+06
7.22044e+06
7.21953e+06
7.21861e+06
7.21769e+06
7.21676e+06
7.21582e+06
7.21489e+06
7.21394e+06
7.213e+06
7.21205e+06
7.21109e+06
7.21014e+06
7.20918e+06
7.20822e+06
7.20725e+06
7.20629e+06
7.20532e+06
7.20436e+06
7.20339e+06
7.20242e+06
7.20145e+06
7.20048e+06
)
;

boundaryField
{
    inlet
    {
        type            fixedFluxPressure;
        gradient        uniform 1068.01;
        value           uniform 7.24761e+06;
    }
    outlet
    {
        type            fixedValue;
        value           uniform 7.2e+06;
    }
    fixedWalls
    {
        type            fixedFluxPressure;
        gradient        nonuniform List<scalar> 
300
(
0
0
0
0
0
0
0
0
0
0
0
0
0
0
1.82605e-16
-2.39206e-17
-1.59593e-16
0
0
0
0
3.41841e-16
-1.85084e-17
-3.29456e-16
0
0
0
0
0
0
0
0
0
0
0
0
0
0
0
0
0
0
0
0
0
-6.92602e-16
-1.53519e-21
6.90189e-16
0
0
0
0
-6.93397e-16
8.03392e-18
6.87841e-16
0
0
0
0
0
-6.8971e-16
-1.54153e-21
6.88829e-16
0
0
0
0
-6.89776e-16
1.9881e-18
6.89364e-16
0
0
0
0
0
0
0
0
0
0
0
0
0
0
0
0
0
0
0
-1.82605e-16
2.39206e-17
1.59593e-16
0
0
0
0
-3.41841e-16
1.85084e-17
3.29456e-16
0
0
0
0
0
0
0
0
0
0
0
0
0
0
0
0
0
0
0
0
0
6.92602e-16
1.53519e-21
-6.90189e-16
0
0
0
0
6.93397e-16
-8.03392e-18
-6.87841e-16
0
0
0
0
0
6.8971e-16
1.54153e-21
-6.88829e-16
0
0
0
0
6.89776e-16
-1.9881e-18
-6.89364e-16
0
0
0
0
0
0
0
0
0
0
0
0
0
0
0
0
0
0
0
1.82605e-16
-2.39206e-17
-1.59593e-16
0
0
0
0
3.41841e-16
-1.85084e-17
-3.29456e-16
0
0
0
0
0
0
0
0
0
0
0
0
0
0
0
0
0
0
0
0
0
-6.92602e-16
-1.53519e-21
6.90189e-16
0
0
0
0
-6.93397e-16
8.03392e-18
6.87841e-16
0
0
0
0
0
-6.8971e-16
-1.54153e-21
6.88829e-16
0
0
0
0
-6.89776e-16
1.9881e-18
6.89364e-16
0
0
0
0
0
0
0
0
0
0
0
0
0
0
0
0
0
0
0
-1.82605e-16
2.39206e-17
1.59593e-16
0
0
0
0
-3.41841e-16
1.85084e-17
3.29456e-16
0
0
0
0
0
0
0
0
0
0
0
0
0
0
0
0
0
0
0
0
0
6.92602e-16
1.53519e-21
-6.90189e-16
0
0
0
0
6.93397e-16
-8.03392e-18
-6.87841e-16
0
0
0
0
0
6.8971e-16
1.54153e-21
-6.88829e-16
0
0
0
0
6.89776e-16
-1.9881e-18
-6.89364e-16
0
0
0
0
0
)
;
        value           nonuniform List<scalar> 
300
(
7.24759e+06
7.24757e+06
7.24755e+06
7.24753e+06
7.24751e+06
7.24749e+06
7.24746e+06
7.24743e+06
7.24736e+06
7.24727e+06
7.24715e+06
7.24699e+06
7.24677e+06
7.24651e+06
7.24621e+06
7.24589e+06
7.24555e+06
7.24519e+06
7.24482e+06
7.24442e+06
7.24401e+06
7.24357e+06
7.24313e+06
7.24266e+06
7.24217e+06
7.24166e+06
7.24112e+06
7.24056e+06
7.23998e+06
7.23938e+06
7.23876e+06
7.23812e+06
7.23746e+06
7.23678e+06
7.23608e+06
7.23537e+06
7.23464e+06
7.2339e+06
7.23314e+06
7.23237e+06
7.23159e+06
7.23079e+06
7.22998e+06
7.22916e+06
7.22833e+06
7.22749e+06
7.22664e+06
7.22578e+06
7.22491e+06
7.22403e+06
7.22315e+06
7.22225e+06
7.22135e+06
7.22044e+06
7.21953e+06
7.21861e+06
7.21769e+06
7.21676e+06
7.21582e+06
7.21489e+06
7.21394e+06
7.213e+06
7.21205e+06
7.21109e+06
7.21014e+06
7.20918e+06
7.20822e+06
7.20725e+06
7.20629e+06
7.20532e+06
7.20436e+06
7.20339e+06
7.20242e+06
7.20145e+06
7.20048e+06
7.24759e+06
7.24757e+06
7.24755e+06
7.24753e+06
7.24751e+06
7.24749e+06
7.24746e+06
7.24743e+06
7.24736e+06
7.24727e+06
7.24715e+06
7.24699e+06
7.24677e+06
7.24651e+06
7.24621e+06
7.24589e+06
7.24555e+06
7.24519e+06
7.24482e+06
7.24442e+06
7.24401e+06
7.24357e+06
7.24313e+06
7.24266e+06
7.24217e+06
7.24166e+06
7.24112e+06
7.24056e+06
7.23998e+06
7.23938e+06
7.23876e+06
7.23812e+06
7.23746e+06
7.23678e+06
7.23608e+06
7.23537e+06
7.23464e+06
7.2339e+06
7.23314e+06
7.23237e+06
7.23159e+06
7.23079e+06
7.22998e+06
7.22916e+06
7.22833e+06
7.22749e+06
7.22664e+06
7.22578e+06
7.22491e+06
7.22403e+06
7.22315e+06
7.22225e+06
7.22135e+06
7.22044e+06
7.21953e+06
7.21861e+06
7.21769e+06
7.21676e+06
7.21582e+06
7.21489e+06
7.21394e+06
7.213e+06
7.21205e+06
7.21109e+06
7.21014e+06
7.20918e+06
7.20822e+06
7.20725e+06
7.20629e+06
7.20532e+06
7.20436e+06
7.20339e+06
7.20242e+06
7.20145e+06
7.20048e+06
7.24759e+06
7.24757e+06
7.24755e+06
7.24753e+06
7.24751e+06
7.24749e+06
7.24746e+06
7.24743e+06
7.24736e+06
7.24727e+06
7.24715e+06
7.24699e+06
7.24677e+06
7.24651e+06
7.24621e+06
7.24589e+06
7.24555e+06
7.24519e+06
7.24482e+06
7.24442e+06
7.24401e+06
7.24357e+06
7.24313e+06
7.24266e+06
7.24217e+06
7.24166e+06
7.24112e+06
7.24056e+06
7.23998e+06
7.23938e+06
7.23876e+06
7.23812e+06
7.23746e+06
7.23678e+06
7.23608e+06
7.23537e+06
7.23464e+06
7.2339e+06
7.23314e+06
7.23237e+06
7.23159e+06
7.23079e+06
7.22998e+06
7.22916e+06
7.22833e+06
7.22749e+06
7.22664e+06
7.22578e+06
7.22491e+06
7.22403e+06
7.22315e+06
7.22225e+06
7.22135e+06
7.22044e+06
7.21953e+06
7.21861e+06
7.21769e+06
7.21676e+06
7.21582e+06
7.21489e+06
7.21394e+06
7.213e+06
7.21205e+06
7.21109e+06
7.21014e+06
7.20918e+06
7.20822e+06
7.20725e+06
7.20629e+06
7.20532e+06
7.20436e+06
7.20339e+06
7.20242e+06
7.20145e+06
7.20048e+06
7.24759e+06
7.24757e+06
7.24755e+06
7.24753e+06
7.24751e+06
7.24749e+06
7.24746e+06
7.24743e+06
7.24736e+06
7.24727e+06
7.24715e+06
7.24699e+06
7.24677e+06
7.24651e+06
7.24621e+06
7.24589e+06
7.24555e+06
7.24519e+06
7.24482e+06
7.24442e+06
7.24401e+06
7.24357e+06
7.24313e+06
7.24266e+06
7.24217e+06
7.24166e+06
7.24112e+06
7.24056e+06
7.23998e+06
7.23938e+06
7.23876e+06
7.23812e+06
7.23746e+06
7.23678e+06
7.23608e+06
7.23537e+06
7.23464e+06
7.2339e+06
7.23314e+06
7.23237e+06
7.23159e+06
7.23079e+06
7.22998e+06
7.22916e+06
7.22833e+06
7.22749e+06
7.22664e+06
7.22578e+06
7.22491e+06
7.22403e+06
7.22315e+06
7.22225e+06
7.22135e+06
7.22044e+06
7.21953e+06
7.21861e+06
7.21769e+06
7.21676e+06
7.21582e+06
7.21489e+06
7.21394e+06
7.213e+06
7.21205e+06
7.21109e+06
7.21014e+06
7.20918e+06
7.20822e+06
7.20725e+06
7.20629e+06
7.20532e+06
7.20436e+06
7.20339e+06
7.20242e+06
7.20145e+06
7.20048e+06
)
;
    }
}


// ************************************************************************* //
