/*--------------------------------*- C++ -*----------------------------------*\
| =========                 |                                                 |
| \\      /  F ield         | OpenFOAM: The Open Source CFD Toolbox           |
|  \\    /   O peration     | Version:  2406                                  |
|   \\  /    A nd           | Website:  www.openfoam.com                      |
|    \\/     M anipulation  |                                                 |
\*---------------------------------------------------------------------------*/
FoamFile
{
    version     2.0;
    format      ascii;
    arch        "LSB;label=32;scalar=64";
    class       volScalarField;
    location    "30/fluidRegion";
    object      alphaRhoMagU.vapour;
}
// * * * * * * * * * * * * * * * * * * * * * * * * * * * * * * * * * * * * * //

dimensions      [1 -2 -1 0 0 0 0];

internalField   nonuniform List<scalar> 
70
(
7.13372
7.70376
8.25229
8.80338
9.35129
9.89918
10.4471
10.9956
11.5451
12.0956
12.6475
13.2006
13.7552
14.3111
14.8685
15.4272
15.9874
16.549
17.112
17.6763
18.242
18.8091
19.3775
19.9472
20.5182
21.0904
21.664
22.2387
22.8147
23.3919
23.9703
24.5498
25.1306
25.7124
26.2953
26.8794
27.4645
28.0507
28.6379
29.2262
29.8157
30.4068
30.9996
31.594
32.1899
32.7874
33.3864
33.987
34.5889
35.1924
35.7972
36.4034
37.011
37.6199
38.2301
38.8415
39.4541
40.068
40.683
41.2992
41.9164
42.5348
43.1543
43.7747
44.3962
45.0187
45.6423
46.2649
46.8774
47.5085
)
;

boundaryField
{
    inlet
    {
        type            calculated;
        value           uniform 6.78617;
    }
    outlet
    {
        type            calculated;
        value           uniform 47.508;
    }
    fixedWalls
    {
        type            calculated;
        value           nonuniform List<scalar> 
280
(
7.13372
7.70376
8.25229
8.80338
9.35129
9.89918
10.4471
10.9956
11.5451
12.0956
12.6475
13.2006
13.7552
14.3111
14.8685
15.4272
15.9874
16.549
17.112
17.6763
18.242
18.8091
19.3775
19.9472
20.5182
21.0904
21.664
22.2387
22.8147
23.3919
23.9703
24.5498
25.1306
25.7124
26.2953
26.8794
27.4645
28.0507
28.6379
29.2262
29.8157
30.4068
30.9996
31.594
32.1899
32.7874
33.3864
33.987
34.5889
35.1924
35.7972
36.4034
37.011
37.6199
38.2301
38.8415
39.4541
40.068
40.683
41.2992
41.9164
42.5348
43.1543
43.7747
44.3962
45.0187
45.6423
46.2649
46.8774
47.5085
7.13372
7.70376
8.25229
8.80338
9.35129
9.89918
10.4471
10.9956
11.5451
12.0956
12.6475
13.2006
13.7552
14.3111
14.8685
15.4272
15.9874
16.549
17.112
17.6763
18.242
18.8091
19.3775
19.9472
20.5182
21.0904
21.664
22.2387
22.8147
23.3919
23.9703
24.5498
25.1306
25.7124
26.2953
26.8794
27.4645
28.0507
28.6379
29.2262
29.8157
30.4068
30.9996
31.594
32.1899
32.7874
33.3864
33.987
34.5889
35.1924
35.7972
36.4034
37.011
37.6199
38.2301
38.8415
39.4541
40.068
40.683
41.2992
41.9164
42.5348
43.1543
43.7747
44.3962
45.0187
45.6423
46.2649
46.8774
47.5085
7.13372
7.70376
8.25229
8.80338
9.35129
9.89918
10.4471
10.9956
11.5451
12.0956
12.6475
13.2006
13.7552
14.3111
14.8685
15.4272
15.9874
16.549
17.112
17.6763
18.242
18.8091
19.3775
19.9472
20.5182
21.0904
21.664
22.2387
22.8147
23.3919
23.9703
24.5498
25.1306
25.7124
26.2953
26.8794
27.4645
28.0507
28.6379
29.2262
29.8157
30.4068
30.9996
31.594
32.1899
32.7874
33.3864
33.987
34.5889
35.1924
35.7972
36.4034
37.011
37.6199
38.2301
38.8415
39.4541
40.068
40.683
41.2992
41.9164
42.5348
43.1543
43.7747
44.3962
45.0187
45.6423
46.2649
46.8774
47.5085
7.13372
7.70376
8.25229
8.80338
9.35129
9.89918
10.4471
10.9956
11.5451
12.0956
12.6475
13.2006
13.7552
14.3111
14.8685
15.4272
15.9874
16.549
17.112
17.6763
18.242
18.8091
19.3775
19.9472
20.5182
21.0904
21.664
22.2387
22.8147
23.3919
23.9703
24.5498
25.1306
25.7124
26.2953
26.8794
27.4645
28.0507
28.6379
29.2262
29.8157
30.4068
30.9996
31.594
32.1899
32.7874
33.3864
33.987
34.5889
35.1924
35.7972
36.4034
37.011
37.6199
38.2301
38.8415
39.4541
40.068
40.683
41.2992
41.9164
42.5348
43.1543
43.7747
44.3962
45.0187
45.6423
46.2649
46.8774
47.5085
)
;
    }
}


// ************************************************************************* //
