/*--------------------------------*- C++ -*----------------------------------*\
| =========                 |                                                 |
| \\      /  F ield         | OpenFOAM: The Open Source CFD Toolbox           |
|  \\    /   O peration     | Version:  2406                                  |
|   \\  /    A nd           | Website:  www.openfoam.com                      |
|    \\/     M anipulation  |                                                 |
\*---------------------------------------------------------------------------*/
FoamFile
{
    version     2.0;
    format      ascii;
    arch        "LSB;label=32;scalar=64";
    class       volScalarField;
    location    "30/fluidRegion";
    object      dgdt.vapour;
}
// * * * * * * * * * * * * * * * * * * * * * * * * * * * * * * * * * * * * * //

dimensions      [0 0 -1 0 0 0 0];

internalField   nonuniform List<scalar> 
70
(
1.493
1.50433
1.51348
1.52107
1.52758
1.53335
1.53862
1.54353
1.54819
1.55268
1.55703
1.56127
1.56544
1.56953
1.57356
1.57754
1.58147
1.58534
1.58918
1.59296
1.5967
1.6004
1.60405
1.60765
1.61121
1.61472
1.61819
1.62161
1.62498
1.62831
1.63159
1.63482
1.638
1.64114
1.64423
1.64728
1.65027
1.65323
1.65613
1.65899
1.6628
1.66749
1.6721
1.67663
1.68108
1.68545
1.68974
1.69395
1.69808
1.70212
1.70608
1.70995
1.71374
1.71745
1.72108
1.72462
1.72808
1.73145
1.73475
1.73796
1.74109
1.74414
1.74712
1.75002
1.75284
1.7556
1.75828
1.76088
1.74888
1.72478
)
;

boundaryField
{
    inlet
    {
        type            calculated;
        value           uniform 1.493;
    }
    outlet
    {
        type            calculated;
        value           uniform 1.72478;
    }
    fixedWalls
    {
        type            calculated;
        value           nonuniform List<scalar> 
280
(
1.493
1.50433
1.51348
1.52107
1.52758
1.53335
1.53862
1.54353
1.54819
1.55268
1.55703
1.56127
1.56544
1.56953
1.57356
1.57754
1.58147
1.58534
1.58918
1.59296
1.5967
1.6004
1.60405
1.60765
1.61121
1.61472
1.61819
1.62161
1.62498
1.62831
1.63159
1.63482
1.638
1.64114
1.64423
1.64728
1.65027
1.65323
1.65613
1.65899
1.6628
1.66749
1.6721
1.67663
1.68108
1.68545
1.68974
1.69395
1.69808
1.70212
1.70608
1.70995
1.71374
1.71745
1.72108
1.72462
1.72808
1.73145
1.73475
1.73796
1.74109
1.74414
1.74712
1.75002
1.75284
1.7556
1.75828
1.76088
1.74888
1.72478
1.493
1.50433
1.51348
1.52107
1.52758
1.53335
1.53862
1.54353
1.54819
1.55268
1.55703
1.56127
1.56544
1.56953
1.57356
1.57754
1.58147
1.58534
1.58918
1.59296
1.5967
1.6004
1.60405
1.60765
1.61121
1.61472
1.61819
1.62161
1.62498
1.62831
1.63159
1.63482
1.638
1.64114
1.64423
1.64728
1.65027
1.65323
1.65613
1.65899
1.6628
1.66749
1.6721
1.67663
1.68108
1.68545
1.68974
1.69395
1.69808
1.70212
1.70608
1.70995
1.71374
1.71745
1.72108
1.72462
1.72808
1.73145
1.73475
1.73796
1.74109
1.74414
1.74712
1.75002
1.75284
1.7556
1.75828
1.76088
1.74888
1.72478
1.493
1.50433
1.51348
1.52107
1.52758
1.53335
1.53862
1.54353
1.54819
1.55268
1.55703
1.56127
1.56544
1.56953
1.57356
1.57754
1.58147
1.58534
1.58918
1.59296
1.5967
1.6004
1.60405
1.60765
1.61121
1.61472
1.61819
1.62161
1.62498
1.62831
1.63159
1.63482
1.638
1.64114
1.64423
1.64728
1.65027
1.65323
1.65613
1.65899
1.6628
1.66749
1.6721
1.67663
1.68108
1.68545
1.68974
1.69395
1.69808
1.70212
1.70608
1.70995
1.71374
1.71745
1.72108
1.72462
1.72808
1.73145
1.73475
1.73796
1.74109
1.74414
1.74712
1.75002
1.75284
1.7556
1.75828
1.76088
1.74888
1.72478
1.493
1.50433
1.51348
1.52107
1.52758
1.53335
1.53862
1.54353
1.54819
1.55268
1.55703
1.56127
1.56544
1.56953
1.57356
1.57754
1.58147
1.58534
1.58918
1.59296
1.5967
1.6004
1.60405
1.60765
1.61121
1.61472
1.61819
1.62161
1.62498
1.62831
1.63159
1.63482
1.638
1.64114
1.64423
1.64728
1.65027
1.65323
1.65613
1.65899
1.6628
1.66749
1.6721
1.67663
1.68108
1.68545
1.68974
1.69395
1.69808
1.70212
1.70608
1.70995
1.71374
1.71745
1.72108
1.72462
1.72808
1.73145
1.73475
1.73796
1.74109
1.74414
1.74712
1.75002
1.75284
1.7556
1.75828
1.76088
1.74888
1.72478
)
;
    }
}


// ************************************************************************* //
