/*--------------------------------*- C++ -*----------------------------------*\
| =========                 |                                                 |
| \\      /  F ield         | OpenFOAM: The Open Source CFD Toolbox           |
|  \\    /   O peration     | Version:  2406                                  |
|   \\  /    A nd           | Website:  www.openfoam.com                      |
|    \\/     M anipulation  |                                                 |
\*---------------------------------------------------------------------------*/
FoamFile
{
    version     2.0;
    format      ascii;
    arch        "LSB;label=32;scalar=64";
    class       volTensorField;
    location    "30/fluidRegion";
    object      Kd.liquid.structure;
}
// * * * * * * * * * * * * * * * * * * * * * * * * * * * * * * * * * * * * * //

dimensions      [1 -3 -1 0 0 0 0];

internalField   nonuniform List<tensor> 
70
(
(1094.4 0 0 0 1094.4 0 0 0 1094.4)
(1143.89 0 0 0 1143.89 0 0 0 1143.89)
(1189.24 0 0 0 1189.24 0 0 0 1189.24)
(1232.91 0 0 0 1232.91 0 0 0 1232.91)
(1274.76 0 0 0 1274.76 0 0 0 1274.76)
(1315.3 0 0 0 1315.3 0 0 0 1315.3)
(1354.72 0 0 0 1354.72 0 0 0 1354.72)
(1393.21 0 0 0 1393.21 0 0 0 1393.21)
(1430.9 0 0 0 1430.9 0 0 0 1430.9)
(1467.88 0 0 0 1467.88 0 0 0 1467.88)
(1504.23 0 0 0 1504.23 0 0 0 1504.23)
(1540.01 0 0 0 1540.01 0 0 0 1540.01)
(1575.26 0 0 0 1575.26 0 0 0 1575.26)
(1610.02 0 0 0 1610.02 0 0 0 1610.02)
(1644.33 0 0 0 1644.33 0 0 0 1644.33)
(1678.21 0 0 0 1678.21 0 0 0 1678.21)
(1711.69 0 0 0 1711.69 0 0 0 1711.69)
(1744.79 0 0 0 1744.79 0 0 0 1744.79)
(1777.52 0 0 0 1777.52 0 0 0 1777.52)
(1809.91 0 0 0 1809.91 0 0 0 1809.91)
(1841.97 0 0 0 1841.97 0 0 0 1841.97)
(1873.72 0 0 0 1873.72 0 0 0 1873.72)
(1905.16 0 0 0 1905.16 0 0 0 1905.16)
(1936.32 0 0 0 1936.32 0 0 0 1936.32)
(1967.2 0 0 0 1967.2 0 0 0 1967.2)
(1997.81 0 0 0 1997.81 0 0 0 1997.81)
(2028.16 0 0 0 2028.16 0 0 0 2028.16)
(2058.28 0 0 0 2058.28 0 0 0 2058.28)
(2088.15 0 0 0 2088.15 0 0 0 2088.15)
(2117.79 0 0 0 2117.79 0 0 0 2117.79)
(2147.22 0 0 0 2147.22 0 0 0 2147.22)
(2176.43 0 0 0 2176.43 0 0 0 2176.43)
(2205.43 0 0 0 2205.43 0 0 0 2205.43)
(2234.24 0 0 0 2234.24 0 0 0 2234.24)
(2262.85 0 0 0 2262.85 0 0 0 2262.85)
(2291.27 0 0 0 2291.27 0 0 0 2291.27)
(2319.52 0 0 0 2319.52 0 0 0 2319.52)
(2347.59 0 0 0 2347.59 0 0 0 2347.59)
(2375.49 0 0 0 2375.49 0 0 0 2375.49)
(2403.22 0 0 0 2403.22 0 0 0 2403.22)
(2430.8 0 0 0 2430.8 0 0 0 2430.8)
(2458.25 0 0 0 2458.25 0 0 0 2458.25)
(2485.58 0 0 0 2485.58 0 0 0 2485.58)
(2512.79 0 0 0 2512.79 0 0 0 2512.79)
(2539.88 0 0 0 2539.88 0 0 0 2539.88)
(2566.86 0 0 0 2566.86 0 0 0 2566.86)
(2593.73 0 0 0 2593.73 0 0 0 2593.73)
(2620.5 0 0 0 2620.5 0 0 0 2620.5)
(2647.16 0 0 0 2647.16 0 0 0 2647.16)
(2673.72 0 0 0 2673.72 0 0 0 2673.72)
(2700.18 0 0 0 2700.18 0 0 0 2700.18)
(2726.55 0 0 0 2726.55 0 0 0 2726.55)
(2752.82 0 0 0 2752.82 0 0 0 2752.82)
(2779 0 0 0 2779 0 0 0 2779)
(2805.09 0 0 0 2805.09 0 0 0 2805.09)
(2831.08 0 0 0 2831.08 0 0 0 2831.08)
(2857 0 0 0 2857 0 0 0 2857)
(2882.82 0 0 0 2882.82 0 0 0 2882.82)
(2908.57 0 0 0 2908.57 0 0 0 2908.57)
(2934.23 0 0 0 2934.23 0 0 0 2934.23)
(2959.81 0 0 0 2959.81 0 0 0 2959.81)
(2985.3 0 0 0 2985.3 0 0 0 2985.3)
(3010.73 0 0 0 3010.73 0 0 0 3010.73)
(3036.07 0 0 0 3036.07 0 0 0 3036.07)
(3061.34 0 0 0 3061.34 0 0 0 3061.34)
(3086.53 0 0 0 3086.53 0 0 0 3086.53)
(3111.65 0 0 0 3111.65 0 0 0 3111.65)
(3136.79 0 0 0 3136.79 0 0 0 3136.79)
(3171.41 0 0 0 3171.41 0 0 0 3171.41)
(3222.09 0 0 0 3222.09 0 0 0 3222.09)
)
;

boundaryField
{
    inlet
    {
        type            zeroGradient;
    }
    outlet
    {
        type            zeroGradient;
    }
    fixedWalls
    {
        type            zeroGradient;
    }
}


// ************************************************************************* //
