/*--------------------------------*- C++ -*----------------------------------*\
| =========                 |                                                 |
| \\      /  F ield         | OpenFOAM: The Open Source CFD Toolbox           |
|  \\    /   O peration     | Version:  2406                                  |
|   \\  /    A nd           | Website:  www.openfoam.com                      |
|    \\/     M anipulation  |                                                 |
\*---------------------------------------------------------------------------*/
FoamFile
{
    version     2.0;
    format      ascii;
    arch        "LSB;label=32;scalar=64";
    class       volTensorField;
    location    "30/fluidRegion";
    object      KdTotU;
}
// * * * * * * * * * * * * * * * * * * * * * * * * * * * * * * * * * * * * * //

dimensions      [1 -2 -2 0 0 0 0];

internalField   nonuniform List<tensor> 
70
(
(1414.4 0 0 0 1414.4 0 0 0 1414.4)
(1487.74 0 0 0 1487.74 0 0 0 1487.74)
(1558.88 0 0 0 1558.88 0 0 0 1558.88)
(1629.74 0 0 0 1629.74 0 0 0 1629.74)
(1699.91 0 0 0 1699.91 0 0 0 1699.91)
(1769.65 0 0 0 1769.65 0 0 0 1769.65)
(1838.99 0 0 0 1838.99 0 0 0 1838.99)
(1907.99 0 0 0 1907.99 0 0 0 1907.99)
(1976.7 0 0 0 1976.7 0 0 0 1976.7)
(2045.14 0 0 0 2045.14 0 0 0 2045.14)
(2113.34 0 0 0 2113.34 0 0 0 2113.34)
(2181.31 0 0 0 2181.31 0 0 0 2181.31)
(2249.06 0 0 0 2249.06 0 0 0 2249.06)
(2316.61 0 0 0 2316.61 0 0 0 2316.61)
(2383.96 0 0 0 2383.96 0 0 0 2383.96)
(2451.12 0 0 0 2451.12 0 0 0 2451.12)
(2518.09 0 0 0 2518.09 0 0 0 2518.09)
(2584.89 0 0 0 2584.89 0 0 0 2584.89)
(2651.52 0 0 0 2651.52 0 0 0 2651.52)
(2717.98 0 0 0 2717.98 0 0 0 2717.98)
(2784.28 0 0 0 2784.28 0 0 0 2784.28)
(2850.41 0 0 0 2850.41 0 0 0 2850.41)
(2916.39 0 0 0 2916.39 0 0 0 2916.39)
(2982.21 0 0 0 2982.21 0 0 0 2982.21)
(3047.87 0 0 0 3047.87 0 0 0 3047.87)
(3113.38 0 0 0 3113.38 0 0 0 3113.38)
(3178.75 0 0 0 3178.75 0 0 0 3178.75)
(3243.96 0 0 0 3243.96 0 0 0 3243.96)
(3309.03 0 0 0 3309.03 0 0 0 3309.03)
(3373.95 0 0 0 3373.95 0 0 0 3373.95)
(3438.73 0 0 0 3438.73 0 0 0 3438.73)
(3503.36 0 0 0 3503.36 0 0 0 3503.36)
(3567.85 0 0 0 3567.85 0 0 0 3567.85)
(3632.2 0 0 0 3632.2 0 0 0 3632.2)
(3696.4 0 0 0 3696.4 0 0 0 3696.4)
(3760.46 0 0 0 3760.46 0 0 0 3760.46)
(3824.38 0 0 0 3824.38 0 0 0 3824.38)
(3888.15 0 0 0 3888.15 0 0 0 3888.15)
(3951.79 0 0 0 3951.79 0 0 0 3951.79)
(4015.28 0 0 0 4015.28 0 0 0 4015.28)
(4078.65 0 0 0 4078.65 0 0 0 4078.65)
(4141.94 0 0 0 4141.94 0 0 0 4141.94)
(4205.15 0 0 0 4205.15 0 0 0 4205.15)
(4268.29 0 0 0 4268.29 0 0 0 4268.29)
(4331.36 0 0 0 4331.36 0 0 0 4331.36)
(4394.34 0 0 0 4394.34 0 0 0 4394.34)
(4457.24 0 0 0 4457.24 0 0 0 4457.24)
(4520.06 0 0 0 4520.06 0 0 0 4520.06)
(4582.78 0 0 0 4582.78 0 0 0 4582.78)
(4645.42 0 0 0 4645.42 0 0 0 4645.42)
(4707.97 0 0 0 4707.97 0 0 0 4707.97)
(4770.43 0 0 0 4770.43 0 0 0 4770.43)
(4832.78 0 0 0 4832.78 0 0 0 4832.78)
(4895.04 0 0 0 4895.04 0 0 0 4895.04)
(4957.19 0 0 0 4957.19 0 0 0 4957.19)
(5019.24 0 0 0 5019.24 0 0 0 5019.24)
(5081.18 0 0 0 5081.18 0 0 0 5081.18)
(5143.01 0 0 0 5143.01 0 0 0 5143.01)
(5204.73 0 0 0 5204.73 0 0 0 5204.73)
(5266.33 0 0 0 5266.33 0 0 0 5266.33)
(5327.81 0 0 0 5327.81 0 0 0 5327.81)
(5389.17 0 0 0 5389.17 0 0 0 5389.17)
(5450.4 0 0 0 5450.4 0 0 0 5450.4)
(5511.51 0 0 0 5511.51 0 0 0 5511.51)
(5572.48 0 0 0 5572.48 0 0 0 5572.48)
(5633.31 0 0 0 5633.31 0 0 0 5633.31)
(5694.01 0 0 0 5694.01 0 0 0 5694.01)
(5754.56 0 0 0 5754.56 0 0 0 5754.56)
(5831.12 0 0 0 5831.12 0 0 0 5831.12)
(5938.13 0 0 0 5938.13 0 0 0 5938.13)
)
;

boundaryField
{
    inlet
    {
        type            zeroGradient;
    }
    outlet
    {
        type            zeroGradient;
    }
    fixedWalls
    {
        type            zeroGradient;
    }
}


// ************************************************************************* //
