/*--------------------------------*- C++ -*----------------------------------*\
| =========                 |                                                 |
| \\      /  F ield         | OpenFOAM: The Open Source CFD Toolbox           |
|  \\    /   O peration     | Version:  2406                                  |
|   \\  /    A nd           | Website:  www.openfoam.com                      |
|    \\/     M anipulation  |                                                 |
\*---------------------------------------------------------------------------*/
FoamFile
{
    version     2.0;
    format      ascii;
    arch        "LSB;label=32;scalar=64";
    class       volScalarField;
    location    "30/fluidRegion";
    object      p;
}
// * * * * * * * * * * * * * * * * * * * * * * * * * * * * * * * * * * * * * //

dimensions      [1 -1 -2 0 0 0 0];

internalField   nonuniform List<scalar> 
70
(
7.20742e+06
7.20737e+06
7.20732e+06
7.20727e+06
7.20722e+06
7.20716e+06
7.20711e+06
7.20705e+06
7.20699e+06
7.20692e+06
7.20686e+06
7.20679e+06
7.20672e+06
7.20665e+06
7.20658e+06
7.20651e+06
7.20643e+06
7.20636e+06
7.20628e+06
7.2062e+06
7.20612e+06
7.20603e+06
7.20595e+06
7.20586e+06
7.20577e+06
7.20568e+06
7.20559e+06
7.2055e+06
7.2054e+06
7.20531e+06
7.20521e+06
7.20511e+06
7.20501e+06
7.2049e+06
7.2048e+06
7.20469e+06
7.20458e+06
7.20448e+06
7.20436e+06
7.20425e+06
7.20414e+06
7.20402e+06
7.2039e+06
7.20378e+06
7.20366e+06
7.20354e+06
7.20341e+06
7.20329e+06
7.20316e+06
7.20303e+06
7.2029e+06
7.20276e+06
7.20263e+06
7.20249e+06
7.20235e+06
7.20221e+06
7.20207e+06
7.20193e+06
7.20178e+06
7.20164e+06
7.20149e+06
7.20134e+06
7.20119e+06
7.20104e+06
7.20088e+06
7.20073e+06
7.20057e+06
7.20041e+06
7.20025e+06
7.20008e+06
)
;

boundaryField
{
    inlet
    {
        type            calculated;
        value           uniform 7.20743e+06;
    }
    outlet
    {
        type            calculated;
        value           uniform 7.2e+06;
    }
    fixedWalls
    {
        type            calculated;
        value           nonuniform List<scalar> 
280
(
7.20742e+06
7.20737e+06
7.20732e+06
7.20727e+06
7.20722e+06
7.20716e+06
7.20711e+06
7.20705e+06
7.20699e+06
7.20692e+06
7.20686e+06
7.20679e+06
7.20672e+06
7.20665e+06
7.20658e+06
7.20651e+06
7.20643e+06
7.20636e+06
7.20628e+06
7.2062e+06
7.20612e+06
7.20603e+06
7.20595e+06
7.20586e+06
7.20577e+06
7.20568e+06
7.20559e+06
7.2055e+06
7.2054e+06
7.20531e+06
7.20521e+06
7.20511e+06
7.20501e+06
7.2049e+06
7.2048e+06
7.20469e+06
7.20458e+06
7.20448e+06
7.20436e+06
7.20425e+06
7.20414e+06
7.20402e+06
7.2039e+06
7.20378e+06
7.20366e+06
7.20354e+06
7.20341e+06
7.20329e+06
7.20316e+06
7.20303e+06
7.2029e+06
7.20276e+06
7.20263e+06
7.20249e+06
7.20235e+06
7.20221e+06
7.20207e+06
7.20193e+06
7.20178e+06
7.20164e+06
7.20149e+06
7.20134e+06
7.20119e+06
7.20104e+06
7.20088e+06
7.20073e+06
7.20057e+06
7.20041e+06
7.20025e+06
7.20008e+06
7.20742e+06
7.20737e+06
7.20732e+06
7.20727e+06
7.20722e+06
7.20716e+06
7.20711e+06
7.20705e+06
7.20699e+06
7.20692e+06
7.20686e+06
7.20679e+06
7.20672e+06
7.20665e+06
7.20658e+06
7.20651e+06
7.20643e+06
7.20636e+06
7.20628e+06
7.2062e+06
7.20612e+06
7.20603e+06
7.20595e+06
7.20586e+06
7.20577e+06
7.20568e+06
7.20559e+06
7.2055e+06
7.2054e+06
7.20531e+06
7.20521e+06
7.20511e+06
7.20501e+06
7.2049e+06
7.2048e+06
7.20469e+06
7.20458e+06
7.20448e+06
7.20436e+06
7.20425e+06
7.20414e+06
7.20402e+06
7.2039e+06
7.20378e+06
7.20366e+06
7.20354e+06
7.20341e+06
7.20329e+06
7.20316e+06
7.20303e+06
7.2029e+06
7.20276e+06
7.20263e+06
7.20249e+06
7.20235e+06
7.20221e+06
7.20207e+06
7.20193e+06
7.20178e+06
7.20164e+06
7.20149e+06
7.20134e+06
7.20119e+06
7.20104e+06
7.20088e+06
7.20073e+06
7.20057e+06
7.20041e+06
7.20025e+06
7.20008e+06
7.20742e+06
7.20737e+06
7.20732e+06
7.20727e+06
7.20722e+06
7.20716e+06
7.20711e+06
7.20705e+06
7.20699e+06
7.20692e+06
7.20686e+06
7.20679e+06
7.20672e+06
7.20665e+06
7.20658e+06
7.20651e+06
7.20643e+06
7.20636e+06
7.20628e+06
7.2062e+06
7.20612e+06
7.20603e+06
7.20595e+06
7.20586e+06
7.20577e+06
7.20568e+06
7.20559e+06
7.2055e+06
7.2054e+06
7.20531e+06
7.20521e+06
7.20511e+06
7.20501e+06
7.2049e+06
7.2048e+06
7.20469e+06
7.20458e+06
7.20448e+06
7.20436e+06
7.20425e+06
7.20414e+06
7.20402e+06
7.2039e+06
7.20378e+06
7.20366e+06
7.20354e+06
7.20341e+06
7.20329e+06
7.20316e+06
7.20303e+06
7.2029e+06
7.20276e+06
7.20263e+06
7.20249e+06
7.20235e+06
7.20221e+06
7.20207e+06
7.20193e+06
7.20178e+06
7.20164e+06
7.20149e+06
7.20134e+06
7.20119e+06
7.20104e+06
7.20088e+06
7.20073e+06
7.20057e+06
7.20041e+06
7.20025e+06
7.20008e+06
7.20742e+06
7.20737e+06
7.20732e+06
7.20727e+06
7.20722e+06
7.20716e+06
7.20711e+06
7.20705e+06
7.20699e+06
7.20692e+06
7.20686e+06
7.20679e+06
7.20672e+06
7.20665e+06
7.20658e+06
7.20651e+06
7.20643e+06
7.20636e+06
7.20628e+06
7.2062e+06
7.20612e+06
7.20603e+06
7.20595e+06
7.20586e+06
7.20577e+06
7.20568e+06
7.20559e+06
7.2055e+06
7.2054e+06
7.20531e+06
7.20521e+06
7.20511e+06
7.20501e+06
7.2049e+06
7.2048e+06
7.20469e+06
7.20458e+06
7.20448e+06
7.20436e+06
7.20425e+06
7.20414e+06
7.20402e+06
7.2039e+06
7.20378e+06
7.20366e+06
7.20354e+06
7.20341e+06
7.20329e+06
7.20316e+06
7.20303e+06
7.2029e+06
7.20276e+06
7.20263e+06
7.20249e+06
7.20235e+06
7.20221e+06
7.20207e+06
7.20193e+06
7.20178e+06
7.20164e+06
7.20149e+06
7.20134e+06
7.20119e+06
7.20104e+06
7.20088e+06
7.20073e+06
7.20057e+06
7.20041e+06
7.20025e+06
7.20008e+06
)
;
    }
}


// ************************************************************************* //
