/*--------------------------------*- C++ -*----------------------------------*\
| =========                 |                                                 |
| \\      /  F ield         | OpenFOAM: The Open Source CFD Toolbox           |
|  \\    /   O peration     | Version:  2406                                  |
|   \\  /    A nd           | Website:  www.openfoam.com                      |
|    \\/     M anipulation  |                                                 |
\*---------------------------------------------------------------------------*/
FoamFile
{
    version     2.0;
    format      ascii;
    arch        "LSB;label=32;scalar=64";
    class       volScalarField;
    location    "0.6/fluidRegion";
    object      alphaRhoMagU.vapour;
}
// * * * * * * * * * * * * * * * * * * * * * * * * * * * * * * * * * * * * * //

dimensions      [1 -2 -1 0 0 0 0];

internalField   nonuniform List<scalar> 
70
(
0
0
0
0
0
0
0.337683
1.06346
2.11428
3.45905
5.1029
7.0348
9.26159
11.7929
14.643
17.8282
21.3662
25.275
29.5701
34.2915
40.1209
46.6993
53.7379
61.1128
68.7685
76.6691
84.7891
93.1079
101.608
110.275
119.095
128.055
137.145
146.354
155.672
165.09
174.601
184.15
193.719
203.306
212.915
222.523
232.024
241.51
251.091
260.695
270.322
279.963
289.614
299.276
308.947
318.629
328.321
338.024
347.739
357.467
367.207
376.96
386.726
396.506
406.3
416.109
425.932
435.77
445.619
455.494
465.344
475.337
484.93
495.961
)
;

boundaryField
{
    inlet
    {
        type            calculated;
        value           uniform 0;
    }
    outlet
    {
        type            calculated;
        value           uniform 495.758;
    }
    fixedWalls
    {
        type            calculated;
        value           nonuniform List<scalar> 
280
(
0
0
0
0
0
0
0.337683
1.06346
2.11428
3.45905
5.1029
7.0348
9.26159
11.7929
14.643
17.8282
21.3662
25.275
29.5701
34.2915
40.1209
46.6993
53.7379
61.1128
68.7685
76.6691
84.7891
93.1079
101.608
110.275
119.095
128.055
137.145
146.354
155.672
165.09
174.601
184.15
193.719
203.306
212.915
222.523
232.024
241.51
251.091
260.695
270.322
279.963
289.614
299.276
308.947
318.629
328.321
338.024
347.739
357.467
367.207
376.96
386.726
396.506
406.3
416.109
425.932
435.77
445.619
455.494
465.344
475.337
484.93
495.961
0
0
0
0
0
0
0.337683
1.06346
2.11428
3.45905
5.1029
7.0348
9.26159
11.7929
14.643
17.8282
21.3662
25.275
29.5701
34.2915
40.1209
46.6993
53.7379
61.1128
68.7685
76.6691
84.7891
93.1079
101.608
110.275
119.095
128.055
137.145
146.354
155.672
165.09
174.601
184.15
193.719
203.306
212.915
222.523
232.024
241.51
251.091
260.695
270.322
279.963
289.614
299.276
308.947
318.629
328.321
338.024
347.739
357.467
367.207
376.96
386.726
396.506
406.3
416.109
425.932
435.77
445.619
455.494
465.344
475.337
484.93
495.961
0
0
0
0
0
0
0.337683
1.06346
2.11428
3.45905
5.1029
7.0348
9.26159
11.7929
14.643
17.8282
21.3662
25.275
29.5701
34.2915
40.1209
46.6993
53.7379
61.1128
68.7685
76.6691
84.7891
93.1079
101.608
110.275
119.095
128.055
137.145
146.354
155.672
165.09
174.601
184.15
193.719
203.306
212.915
222.523
232.024
241.51
251.091
260.695
270.322
279.963
289.614
299.276
308.947
318.629
328.321
338.024
347.739
357.467
367.207
376.96
386.726
396.506
406.3
416.109
425.932
435.77
445.619
455.494
465.344
475.337
484.93
495.961
0
0
0
0
0
0
0.337683
1.06346
2.11428
3.45905
5.1029
7.0348
9.26159
11.7929
14.643
17.8282
21.3662
25.275
29.5701
34.2915
40.1209
46.6993
53.7379
61.1128
68.7685
76.6691
84.7891
93.1079
101.608
110.275
119.095
128.055
137.145
146.354
155.672
165.09
174.601
184.15
193.719
203.306
212.915
222.523
232.024
241.51
251.091
260.695
270.322
279.963
289.614
299.276
308.947
318.629
328.321
338.024
347.739
357.467
367.207
376.96
386.726
396.506
406.3
416.109
425.932
435.77
445.619
455.494
465.344
475.337
484.93
495.961
)
;
    }
}


// ************************************************************************* //
