/*--------------------------------*- C++ -*----------------------------------*\
| =========                 |                                                 |
| \\      /  F ield         | OpenFOAM: The Open Source CFD Toolbox           |
|  \\    /   O peration     | Version:  2406                                  |
|   \\  /    A nd           | Website:  www.openfoam.com                      |
|    \\/     M anipulation  |                                                 |
\*---------------------------------------------------------------------------*/
FoamFile
{
    version     2.0;
    format      ascii;
    arch        "LSB;label=32;scalar=64";
    class       volScalarField;
    location    "0.6/fluidRegion";
    object      dgdt.vapour;
}
// * * * * * * * * * * * * * * * * * * * * * * * * * * * * * * * * * * * * * //

dimensions      [0 0 -1 0 0 0 0];

internalField   nonuniform List<scalar> 
70
(
-9.23396e-52
-3.72252e-51
-7.59783e-51
-9.36323e-51
-5.96974e-48
-2.46321e-41
0.306769
0.620833
0.90543
1.16937
1.42105
1.67198
1.92813
2.19406
2.47277
2.76617
3.07522
3.39993
3.73949
4.09204
5.20397
5.76155
6.12278
6.40311
6.63923
6.84629
7.03182
7.20008
7.35378
7.49481
7.62459
7.74422
7.85464
7.95666
8.05094
8.13783
8.2189
8.24104
8.25958
8.27915
8.29967
8.32109
8.33724
8.33793
8.3447
8.35466
8.3669
8.38098
8.39666
8.41378
8.43222
8.45189
8.47272
8.49462
8.51753
8.54139
8.56614
8.59173
8.61809
8.6452
8.67299
8.70143
8.73048
8.7601
8.79027
8.8209
8.85219
8.88337
8.91675
9.12182
)
;

boundaryField
{
    inlet
    {
        type            calculated;
        value           uniform -9.23396e-52;
    }
    outlet
    {
        type            calculated;
        value           uniform 9.12182;
    }
    fixedWalls
    {
        type            calculated;
        value           nonuniform List<scalar> 
280
(
-9.23396e-52
-3.72252e-51
-7.59783e-51
-9.36323e-51
-5.96974e-48
-2.46321e-41
0.306769
0.620833
0.90543
1.16937
1.42105
1.67198
1.92813
2.19406
2.47277
2.76617
3.07522
3.39993
3.73949
4.09204
5.20397
5.76155
6.12278
6.40311
6.63923
6.84629
7.03182
7.20008
7.35378
7.49481
7.62459
7.74422
7.85464
7.95666
8.05094
8.13783
8.2189
8.24104
8.25958
8.27915
8.29967
8.32109
8.33724
8.33793
8.3447
8.35466
8.3669
8.38098
8.39666
8.41378
8.43222
8.45189
8.47272
8.49462
8.51753
8.54139
8.56614
8.59173
8.61809
8.6452
8.67299
8.70143
8.73048
8.7601
8.79027
8.8209
8.85219
8.88337
8.91675
9.12182
-9.23396e-52
-3.72252e-51
-7.59783e-51
-9.36323e-51
-5.96974e-48
-2.46321e-41
0.306769
0.620833
0.90543
1.16937
1.42105
1.67198
1.92813
2.19406
2.47277
2.76617
3.07522
3.39993
3.73949
4.09204
5.20397
5.76155
6.12278
6.40311
6.63923
6.84629
7.03182
7.20008
7.35378
7.49481
7.62459
7.74422
7.85464
7.95666
8.05094
8.13783
8.2189
8.24104
8.25958
8.27915
8.29967
8.32109
8.33724
8.33793
8.3447
8.35466
8.3669
8.38098
8.39666
8.41378
8.43222
8.45189
8.47272
8.49462
8.51753
8.54139
8.56614
8.59173
8.61809
8.6452
8.67299
8.70143
8.73048
8.7601
8.79027
8.8209
8.85219
8.88337
8.91675
9.12182
-9.23396e-52
-3.72252e-51
-7.59783e-51
-9.36323e-51
-5.96974e-48
-2.46321e-41
0.306769
0.620833
0.90543
1.16937
1.42105
1.67198
1.92813
2.19406
2.47277
2.76617
3.07522
3.39993
3.73949
4.09204
5.20397
5.76155
6.12278
6.40311
6.63923
6.84629
7.03182
7.20008
7.35378
7.49481
7.62459
7.74422
7.85464
7.95666
8.05094
8.13783
8.2189
8.24104
8.25958
8.27915
8.29967
8.32109
8.33724
8.33793
8.3447
8.35466
8.3669
8.38098
8.39666
8.41378
8.43222
8.45189
8.47272
8.49462
8.51753
8.54139
8.56614
8.59173
8.61809
8.6452
8.67299
8.70143
8.73048
8.7601
8.79027
8.8209
8.85219
8.88337
8.91675
9.12182
-9.23396e-52
-3.72252e-51
-7.59783e-51
-9.36323e-51
-5.96974e-48
-2.46321e-41
0.306769
0.620833
0.90543
1.16937
1.42105
1.67198
1.92813
2.19406
2.47277
2.76617
3.07522
3.39993
3.73949
4.09204
5.20397
5.76155
6.12278
6.40311
6.63923
6.84629
7.03182
7.20008
7.35378
7.49481
7.62459
7.74422
7.85464
7.95666
8.05094
8.13783
8.2189
8.24104
8.25958
8.27915
8.29967
8.32109
8.33724
8.33793
8.3447
8.35466
8.3669
8.38098
8.39666
8.41378
8.43222
8.45189
8.47272
8.49462
8.51753
8.54139
8.56614
8.59173
8.61809
8.6452
8.67299
8.70143
8.73048
8.7601
8.79027
8.8209
8.85219
8.88337
8.91675
9.12182
)
;
    }
}


// ************************************************************************* //
