/*--------------------------------*- C++ -*----------------------------------*\
| =========                 |                                                 |
| \\      /  F ield         | OpenFOAM: The Open Source CFD Toolbox           |
|  \\    /   O peration     | Version:  2406                                  |
|   \\  /    A nd           | Website:  www.openfoam.com                      |
|    \\/     M anipulation  |                                                 |
\*---------------------------------------------------------------------------*/
FoamFile
{
    version     2.0;
    format      ascii;
    arch        "LSB;label=32;scalar=64";
    class       volTensorField;
    location    "0.6/fluidRegion";
    object      Kd.liquid.structure;
}
// * * * * * * * * * * * * * * * * * * * * * * * * * * * * * * * * * * * * * //

dimensions      [1 -3 -1 0 0 0 0];

internalField   nonuniform List<tensor> 
70
(
(1132.11 0 0 0 1132.11 0 0 0 1132.11)
(1130.18 0 0 0 1130.18 0 0 0 1130.18)
(1128.23 0 0 0 1128.23 0 0 0 1128.23)
(1126.28 0 0 0 1126.28 0 0 0 1126.28)
(1124.31 0 0 0 1124.31 0 0 0 1124.31)
(1122.34 0 0 0 1122.34 0 0 0 1122.34)
(1166.68 0 0 0 1166.68 0 0 0 1166.68)
(1247.99 0 0 0 1247.99 0 0 0 1247.99)
(1354.66 0 0 0 1354.66 0 0 0 1354.66)
(1481.26 0 0 0 1481.26 0 0 0 1481.26)
(1626.22 0 0 0 1626.22 0 0 0 1626.22)
(1786.56 0 0 0 1786.56 0 0 0 1786.56)
(1961.04 0 0 0 1961.04 0 0 0 1961.04)
(2148.66 0 0 0 2148.66 0 0 0 2148.66)
(2348.74 0 0 0 2348.74 0 0 0 2348.74)
(2560.7 0 0 0 2560.7 0 0 0 2560.7)
(2783.97 0 0 0 2783.97 0 0 0 2783.97)
(3017.98 0 0 0 3017.98 0 0 0 3017.98)
(3262.01 0 0 0 3262.01 0 0 0 3262.01)
(3515.99 0 0 0 3515.99 0 0 0 3515.99)
(3812.55 0 0 0 3812.55 0 0 0 3812.55)
(4130.87 0 0 0 4130.87 0 0 0 4130.87)
(4452.58 0 0 0 4452.58 0 0 0 4452.58)
(4771.03 0 0 0 4771.03 0 0 0 4771.03)
(5084.1 0 0 0 5084.1 0 0 0 5084.1)
(5390.94 0 0 0 5390.94 0 0 0 5390.94)
(5691.3 0 0 0 5691.3 0 0 0 5691.3)
(5985.21 0 0 0 5985.21 0 0 0 5985.21)
(6272.82 0 0 0 6272.82 0 0 0 6272.82)
(6554.35 0 0 0 6554.35 0 0 0 6554.35)
(6830.07 0 0 0 6830.07 0 0 0 6830.07)
(7100.26 0 0 0 7100.26 0 0 0 7100.26)
(7365.2 0 0 0 7365.2 0 0 0 7365.2)
(7625.17 0 0 0 7625.17 0 0 0 7625.17)
(7880.44 0 0 0 7880.44 0 0 0 7880.44)
(8131.27 0 0 0 8131.27 0 0 0 8131.27)
(8377.95 0 0 0 8377.95 0 0 0 8377.95)
(8619.79 0 0 0 8619.79 0 0 0 8619.79)
(8856.55 0 0 0 8856.55 0 0 0 8856.55)
(9088.57 0 0 0 9088.57 0 0 0 9088.57)
(9316.17 0 0 0 9316.17 0 0 0 9316.17)
(9540.45 0 0 0 9540.45 0 0 0 9540.45)
(9819.37 0 0 0 9819.37 0 0 0 9819.37)
(10289.6 0 0 0 10289.6 0 0 0 10289.6)
(10768.2 0 0 0 10768.2 0 0 0 10768.2)
(11253.2 0 0 0 11253.2 0 0 0 11253.2)
(11745.7 0 0 0 11745.7 0 0 0 11745.7)
(12245.8 0 0 0 12245.8 0 0 0 12245.8)
(12754 0 0 0 12754 0 0 0 12754)
(13270.5 0 0 0 13270.5 0 0 0 13270.5)
(13795.4 0 0 0 13795.4 0 0 0 13795.4)
(14329 0 0 0 14329 0 0 0 14329)
(14871.5 0 0 0 14871.5 0 0 0 14871.5)
(15423 0 0 0 15423 0 0 0 15423)
(15984 0 0 0 15984 0 0 0 15984)
(16554.4 0 0 0 16554.4 0 0 0 16554.4)
(17134.7 0 0 0 17134.7 0 0 0 17134.7)
(17724.9 0 0 0 17724.9 0 0 0 17724.9)
(18325.5 0 0 0 18325.5 0 0 0 18325.5)
(18936.6 0 0 0 18936.6 0 0 0 18936.6)
(19558.5 0 0 0 19558.5 0 0 0 19558.5)
(20191.5 0 0 0 20191.5 0 0 0 20191.5)
(20835.9 0 0 0 20835.9 0 0 0 20835.9)
(21492.2 0 0 0 21492.2 0 0 0 21492.2)
(22159.9 0 0 0 22159.9 0 0 0 22159.9)
(22842.1 0 0 0 22842.1 0 0 0 22842.1)
(23529.8 0 0 0 23529.8 0 0 0 23529.8)
(24255.2 0 0 0 24255.2 0 0 0 24255.2)
(24912.3 0 0 0 24912.3 0 0 0 24912.3)
(25856.7 0 0 0 25856.7 0 0 0 25856.7)
)
;

boundaryField
{
    inlet
    {
        type            zeroGradient;
    }
    outlet
    {
        type            zeroGradient;
    }
    fixedWalls
    {
        type            zeroGradient;
    }
}


// ************************************************************************* //
