/*--------------------------------*- C++ -*----------------------------------*\
| =========                 |                                                 |
| \\      /  F ield         | OpenFOAM: The Open Source CFD Toolbox           |
|  \\    /   O peration     | Version:  2406                                  |
|   \\  /    A nd           | Website:  www.openfoam.com                      |
|    \\/     M anipulation  |                                                 |
\*---------------------------------------------------------------------------*/
FoamFile
{
    version     2.0;
    format      ascii;
    arch        "LSB;label=32;scalar=64";
    class       volScalarField;
    location    "0.6/fluidRegion";
    object      T.fixedPower;
}
// * * * * * * * * * * * * * * * * * * * * * * * * * * * * * * * * * * * * * //

dimensions      [0 0 0 1 0 0 0];

internalField   nonuniform List<scalar> 
70
(
620.48
620.477
620.474
620.471
620.468
620.465
620.461
620.458
620.454
620.451
620.446
620.442
620.437
620.432
620.427
620.421
620.415
620.408
620.401
620.394
620.386
620.377
620.368
620.358
620.347
620.336
620.324
620.311
620.298
620.284
620.269
620.253
620.237
620.22
620.203
620.185
620.166
620.146
620.127
620.107
620.087
620.067
620.047
620.028
620.008
619.988
619.969
619.95
619.931
619.913
619.895
619.878
619.861
619.844
619.829
619.813
619.799
619.784
619.771
619.757
619.744
619.732
619.719
619.707
619.695
619.682
619.67
619.657
619.644
619.631
)
;

boundaryField
{
    inlet
    {
        type            zeroGradient;
    }
    outlet
    {
        type            zeroGradient;
    }
    fixedWalls
    {
        type            zeroGradient;
    }
}


// ************************************************************************* //
