/*--------------------------------*- C++ -*----------------------------------*\
| =========                 |                                                 |
| \\      /  F ield         | OpenFOAM: The Open Source CFD Toolbox           |
|  \\    /   O peration     | Version:  2406                                  |
|   \\  /    A nd           | Website:  www.openfoam.com                      |
|    \\/     M anipulation  |                                                 |
\*---------------------------------------------------------------------------*/
FoamFile
{
    version     2.0;
    format      ascii;
    arch        "LSB;label=32;scalar=64";
    class       volTensorField;
    location    "0.6/fluidRegion";
    object      KdTotU;
}
// * * * * * * * * * * * * * * * * * * * * * * * * * * * * * * * * * * * * * //

dimensions      [1 -2 -2 0 0 0 0];

internalField   nonuniform List<tensor> 
70
(
(5074.54 0 0 0 5074.54 0 0 0 5074.54)
(5078.09 0 0 0 5078.09 0 0 0 5078.09)
(5081.65 0 0 0 5081.65 0 0 0 5081.65)
(5085.24 0 0 0 5085.24 0 0 0 5085.24)
(5088.83 0 0 0 5088.83 0 0 0 5088.83)
(5092.44 0 0 0 5092.44 0 0 0 5092.44)
(5096.07 0 0 0 5096.07 0 0 0 5096.07)
(5099.71 0 0 0 5099.71 0 0 0 5099.71)
(5103.37 0 0 0 5103.37 0 0 0 5103.37)
(5107.04 0 0 0 5107.04 0 0 0 5107.04)
(5110.73 0 0 0 5110.73 0 0 0 5110.73)
(5114.44 0 0 0 5114.44 0 0 0 5114.44)
(5118.16 0 0 0 5118.16 0 0 0 5118.16)
(5121.9 0 0 0 5121.9 0 0 0 5121.9)
(5125.64 0 0 0 5125.64 0 0 0 5125.64)
(5129.41 0 0 0 5129.41 0 0 0 5129.41)
(5133.18 0 0 0 5133.18 0 0 0 5133.18)
(5136.97 0 0 0 5136.97 0 0 0 5136.97)
(5140.78 0 0 0 5140.78 0 0 0 5140.78)
(5144.6 0 0 0 5144.6 0 0 0 5144.6)
(5148.43 0 0 0 5148.43 0 0 0 5148.43)
(5152.27 0 0 0 5152.27 0 0 0 5152.27)
(5156.13 0 0 0 5156.13 0 0 0 5156.13)
(5160.01 0 0 0 5160.01 0 0 0 5160.01)
(5163.89 0 0 0 5163.89 0 0 0 5163.89)
(5167.8 0 0 0 5167.8 0 0 0 5167.8)
(5171.72 0 0 0 5171.72 0 0 0 5171.72)
(5175.66 0 0 0 5175.66 0 0 0 5175.66)
(5179.61 0 0 0 5179.61 0 0 0 5179.61)
(5183.6 0 0 0 5183.6 0 0 0 5183.6)
(5187.6 0 0 0 5187.6 0 0 0 5187.6)
(5191.63 0 0 0 5191.63 0 0 0 5191.63)
(5195.69 0 0 0 5195.69 0 0 0 5195.69)
(5199.77 0 0 0 5199.77 0 0 0 5199.77)
(5203.88 0 0 0 5203.88 0 0 0 5203.88)
(5208.02 0 0 0 5208.02 0 0 0 5208.02)
(5212.2 0 0 0 5212.2 0 0 0 5212.2)
(5216.4 0 0 0 5216.4 0 0 0 5216.4)
(5220.64 0 0 0 5220.64 0 0 0 5220.64)
(5224.91 0 0 0 5224.91 0 0 0 5224.91)
(5229.23 0 0 0 5229.23 0 0 0 5229.23)
(5233.57 0 0 0 5233.57 0 0 0 5233.57)
(5237.95 0 0 0 5237.95 0 0 0 5237.95)
(5242.34 0 0 0 5242.34 0 0 0 5242.34)
(5246.75 0 0 0 5246.75 0 0 0 5246.75)
(5251.16 0 0 0 5251.16 0 0 0 5251.16)
(5255.54 0 0 0 5255.54 0 0 0 5255.54)
(5259.88 0 0 0 5259.88 0 0 0 5259.88)
(5264.16 0 0 0 5264.16 0 0 0 5264.16)
(5268.36 0 0 0 5268.36 0 0 0 5268.36)
(5272.48 0 0 0 5272.48 0 0 0 5272.48)
(5276.49 0 0 0 5276.49 0 0 0 5276.49)
(5280.4 0 0 0 5280.4 0 0 0 5280.4)
(5284.2 0 0 0 5284.2 0 0 0 5284.2)
(5287.9 0 0 0 5287.9 0 0 0 5287.9)
(5291.51 0 0 0 5291.51 0 0 0 5291.51)
(5295.04 0 0 0 5295.04 0 0 0 5295.04)
(5298.54 0 0 0 5298.54 0 0 0 5298.54)
(5302.01 0 0 0 5302.01 0 0 0 5302.01)
(5305.5 0 0 0 5305.5 0 0 0 5305.5)
(5309.02 0 0 0 5309.02 0 0 0 5309.02)
(5312.59 0 0 0 5312.59 0 0 0 5312.59)
(5316.24 0 0 0 5316.24 0 0 0 5316.24)
(5319.95 0 0 0 5319.95 0 0 0 5319.95)
(5323.72 0 0 0 5323.72 0 0 0 5323.72)
(5327.53 0 0 0 5327.53 0 0 0 5327.53)
(5331.37 0 0 0 5331.37 0 0 0 5331.37)
(5335.21 0 0 0 5335.21 0 0 0 5335.21)
(5339.01 0 0 0 5339.01 0 0 0 5339.01)
(5342.76 0 0 0 5342.76 0 0 0 5342.76)
)
;

boundaryField
{
    inlet
    {
        type            zeroGradient;
    }
    outlet
    {
        type            zeroGradient;
    }
    fixedWalls
    {
        type            zeroGradient;
    }
}


// ************************************************************************* //
