/*--------------------------------*- C++ -*----------------------------------*\
| =========                 |                                                 |
| \\      /  F ield         | OpenFOAM: The Open Source CFD Toolbox           |
|  \\    /   O peration     | Version:  2406                                  |
|   \\  /    A nd           | Website:  www.openfoam.com                      |
|    \\/     M anipulation  |                                                 |
\*---------------------------------------------------------------------------*/
FoamFile
{
    version     2.0;
    format      ascii;
    arch        "LSB;label=32;scalar=64";
    class       volScalarField;
    location    "0.6/fluidRegion";
    object      p;
}
// * * * * * * * * * * * * * * * * * * * * * * * * * * * * * * * * * * * * * //

dimensions      [1 -1 -2 0 0 0 0];

internalField   nonuniform List<scalar> 
70
(
1.47394e+07
1.47391e+07
1.47388e+07
1.47386e+07
1.47383e+07
1.4738e+07
1.47377e+07
1.47375e+07
1.47372e+07
1.47369e+07
1.47366e+07
1.47364e+07
1.47361e+07
1.47358e+07
1.47355e+07
1.47353e+07
1.4735e+07
1.47347e+07
1.47344e+07
1.47341e+07
1.47339e+07
1.47336e+07
1.47333e+07
1.4733e+07
1.47328e+07
1.47325e+07
1.47322e+07
1.47319e+07
1.47316e+07
1.47314e+07
1.47311e+07
1.47308e+07
1.47305e+07
1.47302e+07
1.47299e+07
1.47297e+07
1.47294e+07
1.47291e+07
1.47288e+07
1.47285e+07
1.47283e+07
1.4728e+07
1.47277e+07
1.47274e+07
1.47271e+07
1.47268e+07
1.47265e+07
1.47263e+07
1.4726e+07
1.47257e+07
1.47254e+07
1.47251e+07
1.47248e+07
1.47245e+07
1.47243e+07
1.4724e+07
1.47237e+07
1.47234e+07
1.47231e+07
1.47228e+07
1.47225e+07
1.47222e+07
1.4722e+07
1.47217e+07
1.47214e+07
1.47211e+07
1.47208e+07
1.47205e+07
1.47202e+07
1.47199e+07
)
;

boundaryField
{
    inlet
    {
        type            calculated;
        value           uniform 1.47395e+07;
    }
    outlet
    {
        type            calculated;
        value           uniform 1.47198e+07;
    }
    fixedWalls
    {
        type            calculated;
        value           nonuniform List<scalar> 
280
(
1.47394e+07
1.47391e+07
1.47388e+07
1.47386e+07
1.47383e+07
1.4738e+07
1.47377e+07
1.47375e+07
1.47372e+07
1.47369e+07
1.47366e+07
1.47364e+07
1.47361e+07
1.47358e+07
1.47355e+07
1.47353e+07
1.4735e+07
1.47347e+07
1.47344e+07
1.47341e+07
1.47339e+07
1.47336e+07
1.47333e+07
1.4733e+07
1.47328e+07
1.47325e+07
1.47322e+07
1.47319e+07
1.47316e+07
1.47314e+07
1.47311e+07
1.47308e+07
1.47305e+07
1.47302e+07
1.47299e+07
1.47297e+07
1.47294e+07
1.47291e+07
1.47288e+07
1.47285e+07
1.47283e+07
1.4728e+07
1.47277e+07
1.47274e+07
1.47271e+07
1.47268e+07
1.47265e+07
1.47263e+07
1.4726e+07
1.47257e+07
1.47254e+07
1.47251e+07
1.47248e+07
1.47245e+07
1.47243e+07
1.4724e+07
1.47237e+07
1.47234e+07
1.47231e+07
1.47228e+07
1.47225e+07
1.47222e+07
1.4722e+07
1.47217e+07
1.47214e+07
1.47211e+07
1.47208e+07
1.47205e+07
1.47202e+07
1.47199e+07
1.47394e+07
1.47391e+07
1.47388e+07
1.47386e+07
1.47383e+07
1.4738e+07
1.47377e+07
1.47375e+07
1.47372e+07
1.47369e+07
1.47366e+07
1.47364e+07
1.47361e+07
1.47358e+07
1.47355e+07
1.47353e+07
1.4735e+07
1.47347e+07
1.47344e+07
1.47341e+07
1.47339e+07
1.47336e+07
1.47333e+07
1.4733e+07
1.47328e+07
1.47325e+07
1.47322e+07
1.47319e+07
1.47316e+07
1.47314e+07
1.47311e+07
1.47308e+07
1.47305e+07
1.47302e+07
1.47299e+07
1.47297e+07
1.47294e+07
1.47291e+07
1.47288e+07
1.47285e+07
1.47283e+07
1.4728e+07
1.47277e+07
1.47274e+07
1.47271e+07
1.47268e+07
1.47265e+07
1.47263e+07
1.4726e+07
1.47257e+07
1.47254e+07
1.47251e+07
1.47248e+07
1.47245e+07
1.47243e+07
1.4724e+07
1.47237e+07
1.47234e+07
1.47231e+07
1.47228e+07
1.47225e+07
1.47222e+07
1.4722e+07
1.47217e+07
1.47214e+07
1.47211e+07
1.47208e+07
1.47205e+07
1.47202e+07
1.47199e+07
1.47394e+07
1.47391e+07
1.47388e+07
1.47386e+07
1.47383e+07
1.4738e+07
1.47377e+07
1.47375e+07
1.47372e+07
1.47369e+07
1.47366e+07
1.47364e+07
1.47361e+07
1.47358e+07
1.47355e+07
1.47353e+07
1.4735e+07
1.47347e+07
1.47344e+07
1.47341e+07
1.47339e+07
1.47336e+07
1.47333e+07
1.4733e+07
1.47328e+07
1.47325e+07
1.47322e+07
1.47319e+07
1.47316e+07
1.47314e+07
1.47311e+07
1.47308e+07
1.47305e+07
1.47302e+07
1.47299e+07
1.47297e+07
1.47294e+07
1.47291e+07
1.47288e+07
1.47285e+07
1.47283e+07
1.4728e+07
1.47277e+07
1.47274e+07
1.47271e+07
1.47268e+07
1.47265e+07
1.47263e+07
1.4726e+07
1.47257e+07
1.47254e+07
1.47251e+07
1.47248e+07
1.47245e+07
1.47243e+07
1.4724e+07
1.47237e+07
1.47234e+07
1.47231e+07
1.47228e+07
1.47225e+07
1.47222e+07
1.4722e+07
1.47217e+07
1.47214e+07
1.47211e+07
1.47208e+07
1.47205e+07
1.47202e+07
1.47199e+07
1.47394e+07
1.47391e+07
1.47388e+07
1.47386e+07
1.47383e+07
1.4738e+07
1.47377e+07
1.47375e+07
1.47372e+07
1.47369e+07
1.47366e+07
1.47364e+07
1.47361e+07
1.47358e+07
1.47355e+07
1.47353e+07
1.4735e+07
1.47347e+07
1.47344e+07
1.47341e+07
1.47339e+07
1.47336e+07
1.47333e+07
1.4733e+07
1.47328e+07
1.47325e+07
1.47322e+07
1.47319e+07
1.47316e+07
1.47314e+07
1.47311e+07
1.47308e+07
1.47305e+07
1.47302e+07
1.47299e+07
1.47297e+07
1.47294e+07
1.47291e+07
1.47288e+07
1.47285e+07
1.47283e+07
1.4728e+07
1.47277e+07
1.47274e+07
1.47271e+07
1.47268e+07
1.47265e+07
1.47263e+07
1.4726e+07
1.47257e+07
1.47254e+07
1.47251e+07
1.47248e+07
1.47245e+07
1.47243e+07
1.4724e+07
1.47237e+07
1.47234e+07
1.47231e+07
1.47228e+07
1.47225e+07
1.47222e+07
1.4722e+07
1.47217e+07
1.47214e+07
1.47211e+07
1.47208e+07
1.47205e+07
1.47202e+07
1.47199e+07
)
;
    }
}


// ************************************************************************* //
