/*--------------------------------*- C++ -*----------------------------------*\
| =========                 |                                                 |
| \\      /  F ield         | OpenFOAM: The Open Source CFD Toolbox           |
|  \\    /   O peration     | Version:  2406                                  |
|   \\  /    A nd           | Website:  www.openfoam.com                      |
|    \\/     M anipulation  |                                                 |
\*---------------------------------------------------------------------------*/
FoamFile
{
    version     2.0;
    format      ascii;
    arch        "LSB;label=32;scalar=64";
    class       volScalarField;
    location    "30/fluidRegion";
    object      alphaRhoMagU.vapour;
}
// * * * * * * * * * * * * * * * * * * * * * * * * * * * * * * * * * * * * * //

dimensions      [1 -2 -1 0 0 0 0];

internalField   nonuniform List<scalar> 
70
(
8.22934
8.75924
9.2016
9.67153
10.1283
10.5844
11.0361
11.4854
11.9324
12.3779
12.8224
13.2663
13.7099
14.1534
14.597
15.0409
15.4851
15.9298
16.3749
16.8206
17.2668
17.7137
18.1611
18.6092
19.0579
19.5073
19.9573
20.408
20.8594
21.3114
21.7641
22.2175
22.6715
23.1262
23.5815
24.0375
24.4942
24.9515
25.4095
25.8681
26.3273
26.7872
27.2477
27.7089
28.1706
28.633
29.096
29.5596
30.0238
30.4886
30.954
31.4199
31.8865
32.3536
32.8213
33.2895
33.7583
34.2276
34.6975
35.1679
35.6389
36.1107
36.5835
37.0572
37.5318
38.0073
38.4836
38.9607
39.4385
39.9188
)
;

boundaryField
{
    inlet
    {
        type            calculated;
        value           uniform 8.13268;
    }
    outlet
    {
        type            calculated;
        value           uniform 39.9184;
    }
    fixedWalls
    {
        type            calculated;
        value           nonuniform List<scalar> 
280
(
8.22934
8.75924
9.2016
9.67153
10.1283
10.5844
11.0361
11.4854
11.9324
12.3779
12.8224
13.2663
13.7099
14.1534
14.597
15.0409
15.4851
15.9298
16.3749
16.8206
17.2668
17.7137
18.1611
18.6092
19.0579
19.5073
19.9573
20.408
20.8594
21.3114
21.7641
22.2175
22.6715
23.1262
23.5815
24.0375
24.4942
24.9515
25.4095
25.8681
26.3273
26.7872
27.2477
27.7089
28.1706
28.633
29.096
29.5596
30.0238
30.4886
30.954
31.4199
31.8865
32.3536
32.8213
33.2895
33.7583
34.2276
34.6975
35.1679
35.6389
36.1107
36.5835
37.0572
37.5318
38.0073
38.4836
38.9607
39.4385
39.9188
8.22934
8.75924
9.2016
9.67153
10.1283
10.5844
11.0361
11.4854
11.9324
12.3779
12.8224
13.2663
13.7099
14.1534
14.597
15.0409
15.4851
15.9298
16.3749
16.8206
17.2668
17.7137
18.1611
18.6092
19.0579
19.5073
19.9573
20.408
20.8594
21.3114
21.7641
22.2175
22.6715
23.1262
23.5815
24.0375
24.4942
24.9515
25.4095
25.8681
26.3273
26.7872
27.2477
27.7089
28.1706
28.633
29.096
29.5596
30.0238
30.4886
30.954
31.4199
31.8865
32.3536
32.8213
33.2895
33.7583
34.2276
34.6975
35.1679
35.6389
36.1107
36.5835
37.0572
37.5318
38.0073
38.4836
38.9607
39.4385
39.9188
8.22934
8.75924
9.2016
9.67153
10.1283
10.5844
11.0361
11.4854
11.9324
12.3779
12.8224
13.2663
13.7099
14.1534
14.597
15.0409
15.4851
15.9298
16.3749
16.8206
17.2668
17.7137
18.1611
18.6092
19.0579
19.5073
19.9573
20.408
20.8594
21.3114
21.7641
22.2175
22.6715
23.1262
23.5815
24.0375
24.4942
24.9515
25.4095
25.8681
26.3273
26.7872
27.2477
27.7089
28.1706
28.633
29.096
29.5596
30.0238
30.4886
30.954
31.4199
31.8865
32.3536
32.8213
33.2895
33.7583
34.2276
34.6975
35.1679
35.6389
36.1107
36.5835
37.0572
37.5318
38.0073
38.4836
38.9607
39.4385
39.9188
8.22934
8.75924
9.2016
9.67153
10.1283
10.5844
11.0361
11.4854
11.9324
12.3779
12.8224
13.2663
13.7099
14.1534
14.597
15.0409
15.4851
15.9298
16.3749
16.8206
17.2668
17.7137
18.1611
18.6092
19.0579
19.5073
19.9573
20.408
20.8594
21.3114
21.7641
22.2175
22.6715
23.1262
23.5815
24.0375
24.4942
24.9515
25.4095
25.8681
26.3273
26.7872
27.2477
27.7089
28.1706
28.633
29.096
29.5596
30.0238
30.4886
30.954
31.4199
31.8865
32.3536
32.8213
33.2895
33.7583
34.2276
34.6975
35.1679
35.6389
36.1107
36.5835
37.0572
37.5318
38.0073
38.4836
38.9607
39.4385
39.9188
)
;
    }
}


// ************************************************************************* //
