/*--------------------------------*- C++ -*----------------------------------*\
| =========                 |                                                 |
| \\      /  F ield         | OpenFOAM: The Open Source CFD Toolbox           |
|  \\    /   O peration     | Version:  2406                                  |
|   \\  /    A nd           | Website:  www.openfoam.com                      |
|    \\/     M anipulation  |                                                 |
\*---------------------------------------------------------------------------*/
FoamFile
{
    version     2.0;
    format      ascii;
    arch        "LSB;label=32;scalar=64";
    class       volScalarField;
    location    "30/fluidRegion";
    object      dgdt.vapour;
}
// * * * * * * * * * * * * * * * * * * * * * * * * * * * * * * * * * * * * * //

dimensions      [0 0 -1 0 0 0 0];

internalField   nonuniform List<scalar> 
70
(
1.49929
1.51356
1.52518
1.53417
1.54099
1.54612
1.55006
1.5532
1.55582
1.55814
1.56028
1.56233
1.56435
1.56637
1.5684
1.57047
1.57257
1.5747
1.57688
1.57908
1.58131
1.58357
1.58585
1.58814
1.59046
1.59278
1.59512
1.59746
1.5998
1.60215
1.6045
1.60684
1.60918
1.61151
1.61384
1.61616
1.61847
1.62077
1.62305
1.62533
1.62759
1.62983
1.63206
1.63428
1.63648
1.63866
1.64083
1.64298
1.64511
1.64723
1.64933
1.65141
1.65347
1.65551
1.65753
1.65954
1.66153
1.66349
1.66544
1.66738
1.66967
1.67318
1.67665
1.68007
1.68345
1.68678
1.69007
1.69332
1.69652
1.70108
)
;

boundaryField
{
    inlet
    {
        type            calculated;
        value           uniform 1.49929;
    }
    outlet
    {
        type            calculated;
        value           uniform 1.70108;
    }
    fixedWalls
    {
        type            calculated;
        value           nonuniform List<scalar> 
280
(
1.49929
1.51356
1.52518
1.53417
1.54099
1.54612
1.55006
1.5532
1.55582
1.55814
1.56028
1.56233
1.56435
1.56637
1.5684
1.57047
1.57257
1.5747
1.57688
1.57908
1.58131
1.58357
1.58585
1.58814
1.59046
1.59278
1.59512
1.59746
1.5998
1.60215
1.6045
1.60684
1.60918
1.61151
1.61384
1.61616
1.61847
1.62077
1.62305
1.62533
1.62759
1.62983
1.63206
1.63428
1.63648
1.63866
1.64083
1.64298
1.64511
1.64723
1.64933
1.65141
1.65347
1.65551
1.65753
1.65954
1.66153
1.66349
1.66544
1.66738
1.66967
1.67318
1.67665
1.68007
1.68345
1.68678
1.69007
1.69332
1.69652
1.70108
1.49929
1.51356
1.52518
1.53417
1.54099
1.54612
1.55006
1.5532
1.55582
1.55814
1.56028
1.56233
1.56435
1.56637
1.5684
1.57047
1.57257
1.5747
1.57688
1.57908
1.58131
1.58357
1.58585
1.58814
1.59046
1.59278
1.59512
1.59746
1.5998
1.60215
1.6045
1.60684
1.60918
1.61151
1.61384
1.61616
1.61847
1.62077
1.62305
1.62533
1.62759
1.62983
1.63206
1.63428
1.63648
1.63866
1.64083
1.64298
1.64511
1.64723
1.64933
1.65141
1.65347
1.65551
1.65753
1.65954
1.66153
1.66349
1.66544
1.66738
1.66967
1.67318
1.67665
1.68007
1.68345
1.68678
1.69007
1.69332
1.69652
1.70108
1.49929
1.51356
1.52518
1.53417
1.54099
1.54612
1.55006
1.5532
1.55582
1.55814
1.56028
1.56233
1.56435
1.56637
1.5684
1.57047
1.57257
1.5747
1.57688
1.57908
1.58131
1.58357
1.58585
1.58814
1.59046
1.59278
1.59512
1.59746
1.5998
1.60215
1.6045
1.60684
1.60918
1.61151
1.61384
1.61616
1.61847
1.62077
1.62305
1.62533
1.62759
1.62983
1.63206
1.63428
1.63648
1.63866
1.64083
1.64298
1.64511
1.64723
1.64933
1.65141
1.65347
1.65551
1.65753
1.65954
1.66153
1.66349
1.66544
1.66738
1.66967
1.67318
1.67665
1.68007
1.68345
1.68678
1.69007
1.69332
1.69652
1.70108
1.49929
1.51356
1.52518
1.53417
1.54099
1.54612
1.55006
1.5532
1.55582
1.55814
1.56028
1.56233
1.56435
1.56637
1.5684
1.57047
1.57257
1.5747
1.57688
1.57908
1.58131
1.58357
1.58585
1.58814
1.59046
1.59278
1.59512
1.59746
1.5998
1.60215
1.6045
1.60684
1.60918
1.61151
1.61384
1.61616
1.61847
1.62077
1.62305
1.62533
1.62759
1.62983
1.63206
1.63428
1.63648
1.63866
1.64083
1.64298
1.64511
1.64723
1.64933
1.65141
1.65347
1.65551
1.65753
1.65954
1.66153
1.66349
1.66544
1.66738
1.66967
1.67318
1.67665
1.68007
1.68345
1.68678
1.69007
1.69332
1.69652
1.70108
)
;
    }
}


// ************************************************************************* //
