/*--------------------------------*- C++ -*----------------------------------*\
| =========                 |                                                 |
| \\      /  F ield         | OpenFOAM: The Open Source CFD Toolbox           |
|  \\    /   O peration     | Version:  2406                                  |
|   \\  /    A nd           | Website:  www.openfoam.com                      |
|    \\/     M anipulation  |                                                 |
\*---------------------------------------------------------------------------*/
FoamFile
{
    version     2.0;
    format      ascii;
    arch        "LSB;label=32;scalar=64";
    class       volTensorField;
    location    "30/fluidRegion";
    object      Kd.liquid.structure;
}
// * * * * * * * * * * * * * * * * * * * * * * * * * * * * * * * * * * * * * //

dimensions      [1 -3 -1 0 0 0 0];

internalField   nonuniform List<tensor> 
70
(
(1195.68 0 0 0 1195.68 0 0 0 1195.68)
(1248.2 0 0 0 1248.2 0 0 0 1248.2)
(1291.22 0 0 0 1291.22 0 0 0 1291.22)
(1333.58 0 0 0 1333.58 0 0 0 1333.58)
(1372.65 0 0 0 1372.65 0 0 0 1372.65)
(1409.72 0 0 0 1409.72 0 0 0 1409.72)
(1444.88 0 0 0 1444.88 0 0 0 1444.88)
(1478.55 0 0 0 1478.55 0 0 0 1478.55)
(1510.98 0 0 0 1510.98 0 0 0 1510.98)
(1542.4 0 0 0 1542.4 0 0 0 1542.4)
(1572.99 0 0 0 1572.99 0 0 0 1572.99)
(1602.88 0 0 0 1602.88 0 0 0 1602.88)
(1632.19 0 0 0 1632.19 0 0 0 1632.19)
(1660.98 0 0 0 1660.98 0 0 0 1660.98)
(1689.33 0 0 0 1689.33 0 0 0 1689.33)
(1717.28 0 0 0 1717.28 0 0 0 1717.28)
(1744.87 0 0 0 1744.87 0 0 0 1744.87)
(1772.14 0 0 0 1772.14 0 0 0 1772.14)
(1799.11 0 0 0 1799.11 0 0 0 1799.11)
(1825.8 0 0 0 1825.8 0 0 0 1825.8)
(1852.23 0 0 0 1852.23 0 0 0 1852.23)
(1878.42 0 0 0 1878.42 0 0 0 1878.42)
(1904.36 0 0 0 1904.36 0 0 0 1904.36)
(1930.09 0 0 0 1930.09 0 0 0 1930.09)
(1955.6 0 0 0 1955.6 0 0 0 1955.6)
(1980.91 0 0 0 1980.91 0 0 0 1980.91)
(2006.02 0 0 0 2006.02 0 0 0 2006.02)
(2030.95 0 0 0 2030.95 0 0 0 2030.95)
(2055.69 0 0 0 2055.69 0 0 0 2055.69)
(2080.25 0 0 0 2080.25 0 0 0 2080.25)
(2104.65 0 0 0 2104.65 0 0 0 2104.65)
(2128.88 0 0 0 2128.88 0 0 0 2128.88)
(2152.94 0 0 0 2152.94 0 0 0 2152.94)
(2176.86 0 0 0 2176.86 0 0 0 2176.86)
(2200.62 0 0 0 2200.62 0 0 0 2200.62)
(2224.24 0 0 0 2224.24 0 0 0 2224.24)
(2247.71 0 0 0 2247.71 0 0 0 2247.71)
(2271.04 0 0 0 2271.04 0 0 0 2271.04)
(2294.24 0 0 0 2294.24 0 0 0 2294.24)
(2317.31 0 0 0 2317.31 0 0 0 2317.31)
(2340.25 0 0 0 2340.25 0 0 0 2340.25)
(2363.07 0 0 0 2363.07 0 0 0 2363.07)
(2385.76 0 0 0 2385.76 0 0 0 2385.76)
(2408.34 0 0 0 2408.34 0 0 0 2408.34)
(2430.8 0 0 0 2430.8 0 0 0 2430.8)
(2453.14 0 0 0 2453.14 0 0 0 2453.14)
(2475.38 0 0 0 2475.38 0 0 0 2475.38)
(2497.51 0 0 0 2497.51 0 0 0 2497.51)
(2519.53 0 0 0 2519.53 0 0 0 2519.53)
(2541.45 0 0 0 2541.45 0 0 0 2541.45)
(2563.27 0 0 0 2563.27 0 0 0 2563.27)
(2584.99 0 0 0 2584.99 0 0 0 2584.99)
(2606.61 0 0 0 2606.61 0 0 0 2606.61)
(2628.14 0 0 0 2628.14 0 0 0 2628.14)
(2649.58 0 0 0 2649.58 0 0 0 2649.58)
(2670.92 0 0 0 2670.92 0 0 0 2670.92)
(2692.18 0 0 0 2692.18 0 0 0 2692.18)
(2713.35 0 0 0 2713.35 0 0 0 2713.35)
(2734.44 0 0 0 2734.44 0 0 0 2734.44)
(2755.44 0 0 0 2755.44 0 0 0 2755.44)
(2776.36 0 0 0 2776.36 0 0 0 2776.36)
(2797.21 0 0 0 2797.21 0 0 0 2797.21)
(2818.01 0 0 0 2818.01 0 0 0 2818.01)
(2838.74 0 0 0 2838.74 0 0 0 2838.74)
(2859.42 0 0 0 2859.42 0 0 0 2859.42)
(2880.04 0 0 0 2880.04 0 0 0 2880.04)
(2900.6 0 0 0 2900.6 0 0 0 2900.6)
(2921.11 0 0 0 2921.11 0 0 0 2921.11)
(2941.58 0 0 0 2941.58 0 0 0 2941.58)
(2961.93 0 0 0 2961.93 0 0 0 2961.93)
)
;

boundaryField
{
    inlet
    {
        type            zeroGradient;
    }
    outlet
    {
        type            zeroGradient;
    }
    fixedWalls
    {
        type            zeroGradient;
    }
}


// ************************************************************************* //
