/*--------------------------------*- C++ -*----------------------------------*\
| =========                 |                                                 |
| \\      /  F ield         | OpenFOAM: The Open Source CFD Toolbox           |
|  \\    /   O peration     | Version:  2406                                  |
|   \\  /    A nd           | Website:  www.openfoam.com                      |
|    \\/     M anipulation  |                                                 |
\*---------------------------------------------------------------------------*/
FoamFile
{
    version     2.0;
    format      ascii;
    arch        "LSB;label=32;scalar=64";
    class       volTensorField;
    location    "30/fluidRegion";
    object      KdTotU;
}
// * * * * * * * * * * * * * * * * * * * * * * * * * * * * * * * * * * * * * //

dimensions      [1 -2 -2 0 0 0 0];

internalField   nonuniform List<tensor> 
70
(
(1952.8 0 0 0 1952.8 0 0 0 1952.8)
(2027.06 0 0 0 2027.06 0 0 0 2027.06)
(2094.27 0 0 0 2094.27 0 0 0 2094.27)
(2163.68 0 0 0 2163.68 0 0 0 2163.68)
(2231.75 0 0 0 2231.75 0 0 0 2231.75)
(2299.49 0 0 0 2299.49 0 0 0 2299.49)
(2366.55 0 0 0 2366.55 0 0 0 2366.55)
(2433.09 0 0 0 2433.09 0 0 0 2433.09)
(2499.15 0 0 0 2499.15 0 0 0 2499.15)
(2564.8 0 0 0 2564.8 0 0 0 2564.8)
(2630.09 0 0 0 2630.09 0 0 0 2630.09)
(2695.07 0 0 0 2695.07 0 0 0 2695.07)
(2759.77 0 0 0 2759.77 0 0 0 2759.77)
(2824.22 0 0 0 2824.22 0 0 0 2824.22)
(2888.44 0 0 0 2888.44 0 0 0 2888.44)
(2952.46 0 0 0 2952.46 0 0 0 2952.46)
(3016.29 0 0 0 3016.29 0 0 0 3016.29)
(3079.95 0 0 0 3079.95 0 0 0 3079.95)
(3143.44 0 0 0 3143.44 0 0 0 3143.44)
(3206.77 0 0 0 3206.77 0 0 0 3206.77)
(3269.95 0 0 0 3269.95 0 0 0 3269.95)
(3332.99 0 0 0 3332.99 0 0 0 3332.99)
(3395.89 0 0 0 3395.89 0 0 0 3395.89)
(3458.66 0 0 0 3458.66 0 0 0 3458.66)
(3521.3 0 0 0 3521.3 0 0 0 3521.3)
(3583.81 0 0 0 3583.81 0 0 0 3583.81)
(3646.21 0 0 0 3646.21 0 0 0 3646.21)
(3708.49 0 0 0 3708.49 0 0 0 3708.49)
(3770.65 0 0 0 3770.65 0 0 0 3770.65)
(3832.7 0 0 0 3832.7 0 0 0 3832.7)
(3894.65 0 0 0 3894.65 0 0 0 3894.65)
(3956.48 0 0 0 3956.48 0 0 0 3956.48)
(4018.21 0 0 0 4018.21 0 0 0 4018.21)
(4079.84 0 0 0 4079.84 0 0 0 4079.84)
(4141.37 0 0 0 4141.37 0 0 0 4141.37)
(4202.79 0 0 0 4202.79 0 0 0 4202.79)
(4264.12 0 0 0 4264.12 0 0 0 4264.12)
(4325.35 0 0 0 4325.35 0 0 0 4325.35)
(4386.48 0 0 0 4386.48 0 0 0 4386.48)
(4447.52 0 0 0 4447.52 0 0 0 4447.52)
(4508.46 0 0 0 4508.46 0 0 0 4508.46)
(4569.31 0 0 0 4569.31 0 0 0 4569.31)
(4630.06 0 0 0 4630.06 0 0 0 4630.06)
(4690.73 0 0 0 4690.73 0 0 0 4690.73)
(4751.3 0 0 0 4751.3 0 0 0 4751.3)
(4811.78 0 0 0 4811.78 0 0 0 4811.78)
(4872.17 0 0 0 4872.17 0 0 0 4872.17)
(4932.47 0 0 0 4932.47 0 0 0 4932.47)
(4992.68 0 0 0 4992.68 0 0 0 4992.68)
(5052.8 0 0 0 5052.8 0 0 0 5052.8)
(5112.83 0 0 0 5112.83 0 0 0 5112.83)
(5172.77 0 0 0 5172.77 0 0 0 5172.77)
(5232.63 0 0 0 5232.63 0 0 0 5232.63)
(5292.4 0 0 0 5292.4 0 0 0 5292.4)
(5352.07 0 0 0 5352.07 0 0 0 5352.07)
(5411.67 0 0 0 5411.67 0 0 0 5411.67)
(5471.17 0 0 0 5471.17 0 0 0 5471.17)
(5530.59 0 0 0 5530.59 0 0 0 5530.59)
(5589.92 0 0 0 5589.92 0 0 0 5589.92)
(5649.17 0 0 0 5649.17 0 0 0 5649.17)
(5708.33 0 0 0 5708.33 0 0 0 5708.33)
(5767.46 0 0 0 5767.46 0 0 0 5767.46)
(5826.56 0 0 0 5826.56 0 0 0 5826.56)
(5885.63 0 0 0 5885.63 0 0 0 5885.63)
(5944.67 0 0 0 5944.67 0 0 0 5944.67)
(6003.69 0 0 0 6003.69 0 0 0 6003.69)
(6062.69 0 0 0 6062.69 0 0 0 6062.69)
(6121.67 0 0 0 6121.67 0 0 0 6121.67)
(6180.62 0 0 0 6180.62 0 0 0 6180.62)
(6239.63 0 0 0 6239.63 0 0 0 6239.63)
)
;

boundaryField
{
    inlet
    {
        type            zeroGradient;
    }
    outlet
    {
        type            zeroGradient;
    }
    fixedWalls
    {
        type            zeroGradient;
    }
}


// ************************************************************************* //
