/*--------------------------------*- C++ -*----------------------------------*\
| =========                 |                                                 |
| \\      /  F ield         | OpenFOAM: The Open Source CFD Toolbox           |
|  \\    /   O peration     | Version:  2406                                  |
|   \\  /    A nd           | Website:  www.openfoam.com                      |
|    \\/     M anipulation  |                                                 |
\*---------------------------------------------------------------------------*/
FoamFile
{
    version     2.0;
    format      ascii;
    arch        "LSB;label=32;scalar=64";
    class       volScalarField;
    location    "30/fluidRegion";
    object      p;
}
// * * * * * * * * * * * * * * * * * * * * * * * * * * * * * * * * * * * * * //

dimensions      [1 -1 -2 0 0 0 0];

internalField   nonuniform List<scalar> 
70
(
7.2066e+06
7.20656e+06
7.20652e+06
7.20648e+06
7.20643e+06
7.20638e+06
7.20632e+06
7.20626e+06
7.2062e+06
7.20614e+06
7.20608e+06
7.20601e+06
7.20595e+06
7.20588e+06
7.20581e+06
7.20574e+06
7.20567e+06
7.20559e+06
7.20552e+06
7.20544e+06
7.20536e+06
7.20529e+06
7.20521e+06
7.20513e+06
7.20504e+06
7.20496e+06
7.20488e+06
7.20479e+06
7.2047e+06
7.20461e+06
7.20452e+06
7.20443e+06
7.20434e+06
7.20425e+06
7.20415e+06
7.20406e+06
7.20396e+06
7.20386e+06
7.20376e+06
7.20366e+06
7.20356e+06
7.20346e+06
7.20335e+06
7.20325e+06
7.20314e+06
7.20303e+06
7.20292e+06
7.20281e+06
7.2027e+06
7.20259e+06
7.20247e+06
7.20236e+06
7.20224e+06
7.20212e+06
7.20201e+06
7.20188e+06
7.20176e+06
7.20164e+06
7.20152e+06
7.20139e+06
7.20126e+06
7.20114e+06
7.20101e+06
7.20088e+06
7.20075e+06
7.20061e+06
7.20048e+06
7.20035e+06
7.20021e+06
7.20007e+06
)
;

boundaryField
{
    inlet
    {
        type            calculated;
        value           uniform 7.2066e+06;
    }
    outlet
    {
        type            calculated;
        value           uniform 7.2e+06;
    }
    fixedWalls
    {
        type            calculated;
        value           nonuniform List<scalar> 
280
(
7.2066e+06
7.20656e+06
7.20652e+06
7.20648e+06
7.20643e+06
7.20638e+06
7.20632e+06
7.20626e+06
7.2062e+06
7.20614e+06
7.20608e+06
7.20601e+06
7.20595e+06
7.20588e+06
7.20581e+06
7.20574e+06
7.20567e+06
7.20559e+06
7.20552e+06
7.20544e+06
7.20536e+06
7.20529e+06
7.20521e+06
7.20513e+06
7.20504e+06
7.20496e+06
7.20488e+06
7.20479e+06
7.2047e+06
7.20461e+06
7.20452e+06
7.20443e+06
7.20434e+06
7.20425e+06
7.20415e+06
7.20406e+06
7.20396e+06
7.20386e+06
7.20376e+06
7.20366e+06
7.20356e+06
7.20346e+06
7.20335e+06
7.20325e+06
7.20314e+06
7.20303e+06
7.20292e+06
7.20281e+06
7.2027e+06
7.20259e+06
7.20247e+06
7.20236e+06
7.20224e+06
7.20212e+06
7.20201e+06
7.20188e+06
7.20176e+06
7.20164e+06
7.20152e+06
7.20139e+06
7.20126e+06
7.20114e+06
7.20101e+06
7.20088e+06
7.20075e+06
7.20061e+06
7.20048e+06
7.20035e+06
7.20021e+06
7.20007e+06
7.2066e+06
7.20656e+06
7.20652e+06
7.20648e+06
7.20643e+06
7.20638e+06
7.20632e+06
7.20626e+06
7.2062e+06
7.20614e+06
7.20608e+06
7.20601e+06
7.20595e+06
7.20588e+06
7.20581e+06
7.20574e+06
7.20567e+06
7.20559e+06
7.20552e+06
7.20544e+06
7.20536e+06
7.20529e+06
7.20521e+06
7.20513e+06
7.20504e+06
7.20496e+06
7.20488e+06
7.20479e+06
7.2047e+06
7.20461e+06
7.20452e+06
7.20443e+06
7.20434e+06
7.20425e+06
7.20415e+06
7.20406e+06
7.20396e+06
7.20386e+06
7.20376e+06
7.20366e+06
7.20356e+06
7.20346e+06
7.20335e+06
7.20325e+06
7.20314e+06
7.20303e+06
7.20292e+06
7.20281e+06
7.2027e+06
7.20259e+06
7.20247e+06
7.20236e+06
7.20224e+06
7.20212e+06
7.20201e+06
7.20188e+06
7.20176e+06
7.20164e+06
7.20152e+06
7.20139e+06
7.20126e+06
7.20114e+06
7.20101e+06
7.20088e+06
7.20075e+06
7.20061e+06
7.20048e+06
7.20035e+06
7.20021e+06
7.20007e+06
7.2066e+06
7.20656e+06
7.20652e+06
7.20648e+06
7.20643e+06
7.20638e+06
7.20632e+06
7.20626e+06
7.2062e+06
7.20614e+06
7.20608e+06
7.20601e+06
7.20595e+06
7.20588e+06
7.20581e+06
7.20574e+06
7.20567e+06
7.20559e+06
7.20552e+06
7.20544e+06
7.20536e+06
7.20529e+06
7.20521e+06
7.20513e+06
7.20504e+06
7.20496e+06
7.20488e+06
7.20479e+06
7.2047e+06
7.20461e+06
7.20452e+06
7.20443e+06
7.20434e+06
7.20425e+06
7.20415e+06
7.20406e+06
7.20396e+06
7.20386e+06
7.20376e+06
7.20366e+06
7.20356e+06
7.20346e+06
7.20335e+06
7.20325e+06
7.20314e+06
7.20303e+06
7.20292e+06
7.20281e+06
7.2027e+06
7.20259e+06
7.20247e+06
7.20236e+06
7.20224e+06
7.20212e+06
7.20201e+06
7.20188e+06
7.20176e+06
7.20164e+06
7.20152e+06
7.20139e+06
7.20126e+06
7.20114e+06
7.20101e+06
7.20088e+06
7.20075e+06
7.20061e+06
7.20048e+06
7.20035e+06
7.20021e+06
7.20007e+06
7.2066e+06
7.20656e+06
7.20652e+06
7.20648e+06
7.20643e+06
7.20638e+06
7.20632e+06
7.20626e+06
7.2062e+06
7.20614e+06
7.20608e+06
7.20601e+06
7.20595e+06
7.20588e+06
7.20581e+06
7.20574e+06
7.20567e+06
7.20559e+06
7.20552e+06
7.20544e+06
7.20536e+06
7.20529e+06
7.20521e+06
7.20513e+06
7.20504e+06
7.20496e+06
7.20488e+06
7.20479e+06
7.2047e+06
7.20461e+06
7.20452e+06
7.20443e+06
7.20434e+06
7.20425e+06
7.20415e+06
7.20406e+06
7.20396e+06
7.20386e+06
7.20376e+06
7.20366e+06
7.20356e+06
7.20346e+06
7.20335e+06
7.20325e+06
7.20314e+06
7.20303e+06
7.20292e+06
7.20281e+06
7.2027e+06
7.20259e+06
7.20247e+06
7.20236e+06
7.20224e+06
7.20212e+06
7.20201e+06
7.20188e+06
7.20176e+06
7.20164e+06
7.20152e+06
7.20139e+06
7.20126e+06
7.20114e+06
7.20101e+06
7.20088e+06
7.20075e+06
7.20061e+06
7.20048e+06
7.20035e+06
7.20021e+06
7.20007e+06
)
;
    }
}


// ************************************************************************* //
