/*--------------------------------*- C++ -*----------------------------------*\
| =========                 |                                                 |
| \\      /  F ield         | OpenFOAM: The Open Source CFD Toolbox           |
|  \\    /   O peration     | Version:  2406                                  |
|   \\  /    A nd           | Website:  www.openfoam.com                      |
|    \\/     M anipulation  |                                                 |
\*---------------------------------------------------------------------------*/
FoamFile
{
    version     2.0;
    format      ascii;
    arch        "LSB;label=32;scalar=64";
    class       volScalarField;
    location    "30/fluidRegion";
    object      p_rgh;
}
// * * * * * * * * * * * * * * * * * * * * * * * * * * * * * * * * * * * * * //

dimensions      [1 -1 -2 0 0 0 0];

internalField   nonuniform List<scalar> 
70
(
7.2066e+06
7.20656e+06
7.20652e+06
7.20648e+06
7.20643e+06
7.20638e+06
7.20632e+06
7.20626e+06
7.2062e+06
7.20614e+06
7.20608e+06
7.20601e+06
7.20595e+06
7.20588e+06
7.20581e+06
7.20574e+06
7.20567e+06
7.20559e+06
7.20552e+06
7.20544e+06
7.20536e+06
7.20529e+06
7.20521e+06
7.20513e+06
7.20504e+06
7.20496e+06
7.20488e+06
7.20479e+06
7.2047e+06
7.20461e+06
7.20452e+06
7.20443e+06
7.20434e+06
7.20425e+06
7.20415e+06
7.20406e+06
7.20396e+06
7.20386e+06
7.20376e+06
7.20366e+06
7.20356e+06
7.20346e+06
7.20335e+06
7.20325e+06
7.20314e+06
7.20303e+06
7.20292e+06
7.20281e+06
7.2027e+06
7.20259e+06
7.20247e+06
7.20236e+06
7.20224e+06
7.20212e+06
7.20201e+06
7.20188e+06
7.20176e+06
7.20164e+06
7.20152e+06
7.20139e+06
7.20126e+06
7.20114e+06
7.20101e+06
7.20088e+06
7.20075e+06
7.20061e+06
7.20048e+06
7.20035e+06
7.20021e+06
7.20007e+06
)
;

boundaryField
{
    inlet
    {
        type            fixedFluxPressure;
        gradient        uniform 1869.75;
        value           uniform 7.2066e+06;
    }
    outlet
    {
        type            fixedValue;
        value           uniform 7.2e+06;
    }
    fixedWalls
    {
        type            fixedFluxPressure;
        gradient        nonuniform List<scalar> 
280
(
0
0
0
0
0
0
0
0
0
0
5.80812e-16
-1.30034e-17
-5.6301e-16
-5.7819e-16
1.24976e-17
5.61775e-16
0
0
0
-5.85742e-16
1.14866e-17
5.71952e-16
-5.87619e-16
1.1162e-17
5.7498e-16
0
0
0
0
0
0
0
0
0
5.98288e-16
-9.87508e-18
-5.88943e-16
0
0
0
5.90616e-16
-9.47522e-18
-5.82581e-16
0
0
0
5.94976e-16
-9.11546e-18
-5.87842e-16
1.18606e-15
-8.95615e-18
-1.17262e-15
1.18368e-15
-8.80845e-18
-1.17102e-15
5.99968e-16
-8.69696e-18
-5.9391e-16
0
0
0
1.1898e-15
-8.42303e-18
-1.17892e-15
1.19022e-15
-8.31032e-18
-1.17985e-15
0
0
0
0
0
0
0
0
0
0
0
0
0
-5.80812e-16
1.30034e-17
5.6301e-16
5.7819e-16
-1.24976e-17
-5.61775e-16
0
0
0
5.85742e-16
-1.14866e-17
-5.71952e-16
5.87619e-16
-1.1162e-17
-5.7498e-16
0
0
0
0
0
0
0
0
0
-5.98288e-16
9.87508e-18
5.88943e-16
0
0
0
-5.90616e-16
9.47522e-18
5.82581e-16
0
0
0
-5.94976e-16
9.11546e-18
5.87842e-16
-1.18606e-15
8.95615e-18
1.17262e-15
-1.18368e-15
8.80845e-18
1.17102e-15
-5.99968e-16
8.69696e-18
5.9391e-16
0
0
0
-1.1898e-15
8.42303e-18
1.17892e-15
-1.19022e-15
8.31032e-18
1.17985e-15
0
0
0
0
0
0
0
0
0
0
0
0
0
5.80812e-16
-1.30034e-17
-5.6301e-16
-5.7819e-16
1.24976e-17
5.61775e-16
0
0
0
-5.85742e-16
1.14866e-17
5.71952e-16
-5.87619e-16
1.1162e-17
5.7498e-16
0
0
0
0
0
0
0
0
0
5.98288e-16
-9.87508e-18
-5.88943e-16
0
0
0
5.90616e-16
-9.47522e-18
-5.82581e-16
0
0
0
5.94976e-16
-9.11546e-18
-5.87842e-16
1.18606e-15
-8.95615e-18
-1.17262e-15
1.18368e-15
-8.80845e-18
-1.17102e-15
5.99968e-16
-8.69696e-18
-5.9391e-16
0
0
0
1.1898e-15
-8.42303e-18
-1.17892e-15
1.19022e-15
-8.31032e-18
-1.17985e-15
0
0
0
0
0
0
0
0
0
0
0
0
0
-5.80812e-16
1.30034e-17
5.6301e-16
5.7819e-16
-1.24976e-17
-5.61775e-16
0
0
0
5.85742e-16
-1.14866e-17
-5.71952e-16
5.87619e-16
-1.1162e-17
-5.7498e-16
0
0
0
0
0
0
0
0
0
-5.98288e-16
9.87508e-18
5.88943e-16
0
0
0
-5.90616e-16
9.47522e-18
5.82581e-16
0
0
0
-5.94976e-16
9.11546e-18
5.87842e-16
-1.18606e-15
8.95615e-18
1.17262e-15
-1.18368e-15
8.80845e-18
1.17102e-15
-5.99968e-16
8.69696e-18
5.9391e-16
0
0
0
-1.1898e-15
8.42303e-18
1.17892e-15
-1.19022e-15
8.31032e-18
1.17985e-15
0
0
0
)
;
        value           nonuniform List<scalar> 
280
(
7.2066e+06
7.20656e+06
7.20652e+06
7.20648e+06
7.20643e+06
7.20638e+06
7.20632e+06
7.20626e+06
7.2062e+06
7.20614e+06
7.20608e+06
7.20601e+06
7.20595e+06
7.20588e+06
7.20581e+06
7.20574e+06
7.20567e+06
7.20559e+06
7.20552e+06
7.20544e+06
7.20536e+06
7.20529e+06
7.20521e+06
7.20513e+06
7.20504e+06
7.20496e+06
7.20488e+06
7.20479e+06
7.2047e+06
7.20461e+06
7.20452e+06
7.20443e+06
7.20434e+06
7.20425e+06
7.20415e+06
7.20406e+06
7.20396e+06
7.20386e+06
7.20376e+06
7.20366e+06
7.20356e+06
7.20346e+06
7.20335e+06
7.20325e+06
7.20314e+06
7.20303e+06
7.20292e+06
7.20281e+06
7.2027e+06
7.20259e+06
7.20247e+06
7.20236e+06
7.20224e+06
7.20212e+06
7.20201e+06
7.20188e+06
7.20176e+06
7.20164e+06
7.20152e+06
7.20139e+06
7.20126e+06
7.20114e+06
7.20101e+06
7.20088e+06
7.20075e+06
7.20061e+06
7.20048e+06
7.20035e+06
7.20021e+06
7.20007e+06
7.2066e+06
7.20656e+06
7.20652e+06
7.20648e+06
7.20643e+06
7.20638e+06
7.20632e+06
7.20626e+06
7.2062e+06
7.20614e+06
7.20608e+06
7.20601e+06
7.20595e+06
7.20588e+06
7.20581e+06
7.20574e+06
7.20567e+06
7.20559e+06
7.20552e+06
7.20544e+06
7.20536e+06
7.20529e+06
7.20521e+06
7.20513e+06
7.20504e+06
7.20496e+06
7.20488e+06
7.20479e+06
7.2047e+06
7.20461e+06
7.20452e+06
7.20443e+06
7.20434e+06
7.20425e+06
7.20415e+06
7.20406e+06
7.20396e+06
7.20386e+06
7.20376e+06
7.20366e+06
7.20356e+06
7.20346e+06
7.20335e+06
7.20325e+06
7.20314e+06
7.20303e+06
7.20292e+06
7.20281e+06
7.2027e+06
7.20259e+06
7.20247e+06
7.20236e+06
7.20224e+06
7.20212e+06
7.20201e+06
7.20188e+06
7.20176e+06
7.20164e+06
7.20152e+06
7.20139e+06
7.20126e+06
7.20114e+06
7.20101e+06
7.20088e+06
7.20075e+06
7.20061e+06
7.20048e+06
7.20035e+06
7.20021e+06
7.20007e+06
7.2066e+06
7.20656e+06
7.20652e+06
7.20648e+06
7.20643e+06
7.20638e+06
7.20632e+06
7.20626e+06
7.2062e+06
7.20614e+06
7.20608e+06
7.20601e+06
7.20595e+06
7.20588e+06
7.20581e+06
7.20574e+06
7.20567e+06
7.20559e+06
7.20552e+06
7.20544e+06
7.20536e+06
7.20529e+06
7.20521e+06
7.20513e+06
7.20504e+06
7.20496e+06
7.20488e+06
7.20479e+06
7.2047e+06
7.20461e+06
7.20452e+06
7.20443e+06
7.20434e+06
7.20425e+06
7.20415e+06
7.20406e+06
7.20396e+06
7.20386e+06
7.20376e+06
7.20366e+06
7.20356e+06
7.20346e+06
7.20335e+06
7.20325e+06
7.20314e+06
7.20303e+06
7.20292e+06
7.20281e+06
7.2027e+06
7.20259e+06
7.20247e+06
7.20236e+06
7.20224e+06
7.20212e+06
7.20201e+06
7.20188e+06
7.20176e+06
7.20164e+06
7.20152e+06
7.20139e+06
7.20126e+06
7.20114e+06
7.20101e+06
7.20088e+06
7.20075e+06
7.20061e+06
7.20048e+06
7.20035e+06
7.20021e+06
7.20007e+06
7.2066e+06
7.20656e+06
7.20652e+06
7.20648e+06
7.20643e+06
7.20638e+06
7.20632e+06
7.20626e+06
7.2062e+06
7.20614e+06
7.20608e+06
7.20601e+06
7.20595e+06
7.20588e+06
7.20581e+06
7.20574e+06
7.20567e+06
7.20559e+06
7.20552e+06
7.20544e+06
7.20536e+06
7.20529e+06
7.20521e+06
7.20513e+06
7.20504e+06
7.20496e+06
7.20488e+06
7.20479e+06
7.2047e+06
7.20461e+06
7.20452e+06
7.20443e+06
7.20434e+06
7.20425e+06
7.20415e+06
7.20406e+06
7.20396e+06
7.20386e+06
7.20376e+06
7.20366e+06
7.20356e+06
7.20346e+06
7.20335e+06
7.20325e+06
7.20314e+06
7.20303e+06
7.20292e+06
7.20281e+06
7.2027e+06
7.20259e+06
7.20247e+06
7.20236e+06
7.20224e+06
7.20212e+06
7.20201e+06
7.20188e+06
7.20176e+06
7.20164e+06
7.20152e+06
7.20139e+06
7.20126e+06
7.20114e+06
7.20101e+06
7.20088e+06
7.20075e+06
7.20061e+06
7.20048e+06
7.20035e+06
7.20021e+06
7.20007e+06
)
;
    }
}


// ************************************************************************* //
