/*--------------------------------*- C++ -*----------------------------------*\
| =========                 |                                                 |
| \\      /  F ield         | OpenFOAM: The Open Source CFD Toolbox           |
|  \\    /   O peration     | Version:  2406                                  |
|   \\  /    A nd           | Website:  www.openfoam.com                      |
|    \\/     M anipulation  |                                                 |
\*---------------------------------------------------------------------------*/
FoamFile
{
    version     2.0;
    format      ascii;
    arch        "LSB;label=32;scalar=64";
    class       volScalarField;
    location    "30/fluidRegion";
    object      dgdt.vapour;
}
// * * * * * * * * * * * * * * * * * * * * * * * * * * * * * * * * * * * * * //

dimensions      [0 0 -1 0 0 0 0];

internalField   nonuniform List<scalar> 
70
(
-2.08368e-171
-4.01108e-172
-5.5556e-172
-2.24775e-172
-7.1221e-173
-1.03975e-172
-7.28043e-172
-9.71554e-174
-6.11493e-174
-7.05351e-174
-6.73044e-174
-7.11631e-175
-3.90635e-173
-3.74531e-174
-4.09569e-173
-1.56479e-173
-5.66906e-174
-6.31727e-172
-4.74627e-172
-4.29093e-174
-6.23821e-173
-4.11344e-173
-7.59683e-173
-8.33213e-173
-1.16978e-171
-4.22545e-172
-1.18838e-171
-1.38975e-172
-4.35161e-173
-2.93788e-172
-3.15535e-172
-3.11912e-172
-9.3822e-173
-2.21915e-172
-4.40519e-172
-1.66244e-172
-1.02585e-172
-1.91687e-173
-1.61246e-172
-2.03668e-172
-3.35352e-173
-9.98011e-173
-2.7335e-172
0.017661
0.0514538
0.083726
0.115727
0.147909
0.180782
0.214677
0.249826
0.286351
0.324274
0.363516
0.403901
0.445158
0.48693
0.528788
0.570244
0.610781
0.645256
0.670586
0.696994
0.723814
0.750411
0.776194
0.800642
0.823318
0.843908
0.861849
)
;

boundaryField
{
    inlet
    {
        type            calculated;
        value           uniform -2.08368e-171;
    }
    outlet
    {
        type            calculated;
        value           uniform 0.861849;
    }
    fixedWalls
    {
        type            calculated;
        value           nonuniform List<scalar> 
280
(
-2.08368e-171
-4.01108e-172
-5.5556e-172
-2.24775e-172
-7.1221e-173
-1.03975e-172
-7.28043e-172
-9.71554e-174
-6.11493e-174
-7.05351e-174
-6.73044e-174
-7.11631e-175
-3.90635e-173
-3.74531e-174
-4.09569e-173
-1.56479e-173
-5.66906e-174
-6.31727e-172
-4.74627e-172
-4.29093e-174
-6.23821e-173
-4.11344e-173
-7.59683e-173
-8.33213e-173
-1.16978e-171
-4.22545e-172
-1.18838e-171
-1.38975e-172
-4.35161e-173
-2.93788e-172
-3.15535e-172
-3.11912e-172
-9.3822e-173
-2.21915e-172
-4.40519e-172
-1.66244e-172
-1.02585e-172
-1.91687e-173
-1.61246e-172
-2.03668e-172
-3.35352e-173
-9.98011e-173
-2.7335e-172
0.017661
0.0514538
0.083726
0.115727
0.147909
0.180782
0.214677
0.249826
0.286351
0.324274
0.363516
0.403901
0.445158
0.48693
0.528788
0.570244
0.610781
0.645256
0.670586
0.696994
0.723814
0.750411
0.776194
0.800642
0.823318
0.843908
0.861849
-2.08368e-171
-4.01108e-172
-5.5556e-172
-2.24775e-172
-7.1221e-173
-1.03975e-172
-7.28043e-172
-9.71554e-174
-6.11493e-174
-7.05351e-174
-6.73044e-174
-7.11631e-175
-3.90635e-173
-3.74531e-174
-4.09569e-173
-1.56479e-173
-5.66906e-174
-6.31727e-172
-4.74627e-172
-4.29093e-174
-6.23821e-173
-4.11344e-173
-7.59683e-173
-8.33213e-173
-1.16978e-171
-4.22545e-172
-1.18838e-171
-1.38975e-172
-4.35161e-173
-2.93788e-172
-3.15535e-172
-3.11912e-172
-9.3822e-173
-2.21915e-172
-4.40519e-172
-1.66244e-172
-1.02585e-172
-1.91687e-173
-1.61246e-172
-2.03668e-172
-3.35352e-173
-9.98011e-173
-2.7335e-172
0.017661
0.0514538
0.083726
0.115727
0.147909
0.180782
0.214677
0.249826
0.286351
0.324274
0.363516
0.403901
0.445158
0.48693
0.528788
0.570244
0.610781
0.645256
0.670586
0.696994
0.723814
0.750411
0.776194
0.800642
0.823318
0.843908
0.861849
-2.08368e-171
-4.01108e-172
-5.5556e-172
-2.24775e-172
-7.1221e-173
-1.03975e-172
-7.28043e-172
-9.71554e-174
-6.11493e-174
-7.05351e-174
-6.73044e-174
-7.11631e-175
-3.90635e-173
-3.74531e-174
-4.09569e-173
-1.56479e-173
-5.66906e-174
-6.31727e-172
-4.74627e-172
-4.29093e-174
-6.23821e-173
-4.11344e-173
-7.59683e-173
-8.33213e-173
-1.16978e-171
-4.22545e-172
-1.18838e-171
-1.38975e-172
-4.35161e-173
-2.93788e-172
-3.15535e-172
-3.11912e-172
-9.3822e-173
-2.21915e-172
-4.40519e-172
-1.66244e-172
-1.02585e-172
-1.91687e-173
-1.61246e-172
-2.03668e-172
-3.35352e-173
-9.98011e-173
-2.7335e-172
0.017661
0.0514538
0.083726
0.115727
0.147909
0.180782
0.214677
0.249826
0.286351
0.324274
0.363516
0.403901
0.445158
0.48693
0.528788
0.570244
0.610781
0.645256
0.670586
0.696994
0.723814
0.750411
0.776194
0.800642
0.823318
0.843908
0.861849
-2.08368e-171
-4.01108e-172
-5.5556e-172
-2.24775e-172
-7.1221e-173
-1.03975e-172
-7.28043e-172
-9.71554e-174
-6.11493e-174
-7.05351e-174
-6.73044e-174
-7.11631e-175
-3.90635e-173
-3.74531e-174
-4.09569e-173
-1.56479e-173
-5.66906e-174
-6.31727e-172
-4.74627e-172
-4.29093e-174
-6.23821e-173
-4.11344e-173
-7.59683e-173
-8.33213e-173
-1.16978e-171
-4.22545e-172
-1.18838e-171
-1.38975e-172
-4.35161e-173
-2.93788e-172
-3.15535e-172
-3.11912e-172
-9.3822e-173
-2.21915e-172
-4.40519e-172
-1.66244e-172
-1.02585e-172
-1.91687e-173
-1.61246e-172
-2.03668e-172
-3.35352e-173
-9.98011e-173
-2.7335e-172
0.017661
0.0514538
0.083726
0.115727
0.147909
0.180782
0.214677
0.249826
0.286351
0.324274
0.363516
0.403901
0.445158
0.48693
0.528788
0.570244
0.610781
0.645256
0.670586
0.696994
0.723814
0.750411
0.776194
0.800642
0.823318
0.843908
0.861849
)
;
    }
}


// ************************************************************************* //
