/*--------------------------------*- C++ -*----------------------------------*\
| =========                 |                                                 |
| \\      /  F ield         | OpenFOAM: The Open Source CFD Toolbox           |
|  \\    /   O peration     | Version:  2406                                  |
|   \\  /    A nd           | Website:  www.openfoam.com                      |
|    \\/     M anipulation  |                                                 |
\*---------------------------------------------------------------------------*/
FoamFile
{
    version     2.0;
    format      ascii;
    arch        "LSB;label=32;scalar=64";
    class       volTensorField;
    location    "30/fluidRegion";
    object      Kd.liquid.structure;
}
// * * * * * * * * * * * * * * * * * * * * * * * * * * * * * * * * * * * * * //

dimensions      [1 -3 -1 0 0 0 0];

internalField   nonuniform List<tensor> 
70
(
(418.285 0 0 0 418.285 0 0 0 418.285)
(418.1 0 0 0 418.1 0 0 0 418.1)
(417.915 0 0 0 417.915 0 0 0 417.915)
(417.732 0 0 0 417.732 0 0 0 417.732)
(417.549 0 0 0 417.549 0 0 0 417.549)
(417.367 0 0 0 417.367 0 0 0 417.367)
(417.187 0 0 0 417.187 0 0 0 417.187)
(417.007 0 0 0 417.007 0 0 0 417.007)
(416.828 0 0 0 416.828 0 0 0 416.828)
(416.649 0 0 0 416.649 0 0 0 416.649)
(416.472 0 0 0 416.472 0 0 0 416.472)
(416.295 0 0 0 416.295 0 0 0 416.295)
(416.12 0 0 0 416.12 0 0 0 416.12)
(415.945 0 0 0 415.945 0 0 0 415.945)
(415.771 0 0 0 415.771 0 0 0 415.771)
(415.598 0 0 0 415.598 0 0 0 415.598)
(415.425 0 0 0 415.425 0 0 0 415.425)
(415.254 0 0 0 415.254 0 0 0 415.254)
(415.083 0 0 0 415.083 0 0 0 415.083)
(414.913 0 0 0 414.913 0 0 0 414.913)
(414.743 0 0 0 414.743 0 0 0 414.743)
(414.575 0 0 0 414.575 0 0 0 414.575)
(414.407 0 0 0 414.407 0 0 0 414.407)
(414.24 0 0 0 414.24 0 0 0 414.24)
(414.073 0 0 0 414.073 0 0 0 414.073)
(413.907 0 0 0 413.907 0 0 0 413.907)
(413.742 0 0 0 413.742 0 0 0 413.742)
(413.578 0 0 0 413.578 0 0 0 413.578)
(413.415 0 0 0 413.415 0 0 0 413.415)
(413.252 0 0 0 413.252 0 0 0 413.252)
(413.089 0 0 0 413.089 0 0 0 413.089)
(412.928 0 0 0 412.928 0 0 0 412.928)
(412.767 0 0 0 412.767 0 0 0 412.767)
(412.607 0 0 0 412.607 0 0 0 412.607)
(412.447 0 0 0 412.447 0 0 0 412.447)
(412.288 0 0 0 412.288 0 0 0 412.288)
(412.13 0 0 0 412.13 0 0 0 412.13)
(411.972 0 0 0 411.972 0 0 0 411.972)
(411.815 0 0 0 411.815 0 0 0 411.815)
(411.658 0 0 0 411.658 0 0 0 411.658)
(411.502 0 0 0 411.502 0 0 0 411.502)
(411.347 0 0 0 411.347 0 0 0 411.347)
(411.192 0 0 0 411.192 0 0 0 411.192)
(413.328 0 0 0 413.328 0 0 0 413.328)
(419.625 0 0 0 419.625 0 0 0 419.625)
(429.359 0 0 0 429.359 0 0 0 429.359)
(441.778 0 0 0 441.778 0 0 0 441.778)
(456.855 0 0 0 456.855 0 0 0 456.855)
(474.449 0 0 0 474.449 0 0 0 474.449)
(494.513 0 0 0 494.513 0 0 0 494.513)
(517.009 0 0 0 517.009 0 0 0 517.009)
(541.911 0 0 0 541.911 0 0 0 541.911)
(569.191 0 0 0 569.191 0 0 0 569.191)
(598.811 0 0 0 598.811 0 0 0 598.811)
(630.713 0 0 0 630.713 0 0 0 630.713)
(664.82 0 0 0 664.82 0 0 0 664.82)
(701.025 0 0 0 701.025 0 0 0 701.025)
(739.197 0 0 0 739.197 0 0 0 739.197)
(779.177 0 0 0 779.177 0 0 0 779.177)
(820.766 0 0 0 820.766 0 0 0 820.766)
(863.499 0 0 0 863.499 0 0 0 863.499)
(906.783 0 0 0 906.783 0 0 0 906.783)
(950.541 0 0 0 950.541 0 0 0 950.541)
(994.76 0 0 0 994.76 0 0 0 994.76)
(1039.4 0 0 0 1039.4 0 0 0 1039.4)
(1084.39 0 0 0 1084.39 0 0 0 1084.39)
(1129.64 0 0 0 1129.64 0 0 0 1129.64)
(1175.03 0 0 0 1175.03 0 0 0 1175.03)
(1220.5 0 0 0 1220.5 0 0 0 1220.5)
(1264.66 0 0 0 1264.66 0 0 0 1264.66)
)
;

boundaryField
{
    inlet
    {
        type            zeroGradient;
    }
    outlet
    {
        type            zeroGradient;
    }
    fixedWalls
    {
        type            zeroGradient;
    }
}


// ************************************************************************* //
