/*--------------------------------*- C++ -*----------------------------------*\
| =========                 |                                                 |
| \\      /  F ield         | OpenFOAM: The Open Source CFD Toolbox           |
|  \\    /   O peration     | Version:  2406                                  |
|   \\  /    A nd           | Website:  www.openfoam.com                      |
|    \\/     M anipulation  |                                                 |
\*---------------------------------------------------------------------------*/
FoamFile
{
    version     2.0;
    format      ascii;
    arch        "LSB;label=32;scalar=64";
    class       volTensorField;
    location    "30/fluidRegion";
    object      KdTotU;
}
// * * * * * * * * * * * * * * * * * * * * * * * * * * * * * * * * * * * * * //

dimensions      [1 -2 -2 0 0 0 0];

internalField   nonuniform List<tensor> 
70
(
(539.272 0 0 0 539.272 0 0 0 539.272)
(539.181 0 0 0 539.181 0 0 0 539.181)
(539.095 0 0 0 539.095 0 0 0 539.095)
(539.013 0 0 0 539.013 0 0 0 539.013)
(538.935 0 0 0 538.935 0 0 0 538.935)
(538.862 0 0 0 538.862 0 0 0 538.862)
(538.794 0 0 0 538.794 0 0 0 538.794)
(538.729 0 0 0 538.729 0 0 0 538.729)
(538.669 0 0 0 538.669 0 0 0 538.669)
(538.614 0 0 0 538.614 0 0 0 538.614)
(538.562 0 0 0 538.562 0 0 0 538.562)
(538.515 0 0 0 538.515 0 0 0 538.515)
(538.472 0 0 0 538.472 0 0 0 538.472)
(538.433 0 0 0 538.433 0 0 0 538.433)
(538.399 0 0 0 538.399 0 0 0 538.399)
(538.369 0 0 0 538.369 0 0 0 538.369)
(538.342 0 0 0 538.342 0 0 0 538.342)
(538.32 0 0 0 538.32 0 0 0 538.32)
(538.302 0 0 0 538.302 0 0 0 538.302)
(538.288 0 0 0 538.288 0 0 0 538.288)
(538.279 0 0 0 538.279 0 0 0 538.279)
(538.273 0 0 0 538.273 0 0 0 538.273)
(538.271 0 0 0 538.271 0 0 0 538.271)
(538.273 0 0 0 538.273 0 0 0 538.273)
(538.28 0 0 0 538.28 0 0 0 538.28)
(538.29 0 0 0 538.29 0 0 0 538.29)
(538.304 0 0 0 538.304 0 0 0 538.304)
(538.322 0 0 0 538.322 0 0 0 538.322)
(538.344 0 0 0 538.344 0 0 0 538.344)
(538.37 0 0 0 538.37 0 0 0 538.37)
(538.4 0 0 0 538.4 0 0 0 538.4)
(538.434 0 0 0 538.434 0 0 0 538.434)
(538.472 0 0 0 538.472 0 0 0 538.472)
(538.513 0 0 0 538.513 0 0 0 538.513)
(538.558 0 0 0 538.558 0 0 0 538.558)
(538.607 0 0 0 538.607 0 0 0 538.607)
(538.66 0 0 0 538.66 0 0 0 538.66)
(538.716 0 0 0 538.716 0 0 0 538.716)
(538.777 0 0 0 538.777 0 0 0 538.777)
(538.841 0 0 0 538.841 0 0 0 538.841)
(538.908 0 0 0 538.908 0 0 0 538.908)
(538.98 0 0 0 538.98 0 0 0 538.98)
(539.054 0 0 0 539.054 0 0 0 539.054)
(542.236 0 0 0 542.236 0 0 0 542.236)
(551.122 0 0 0 551.122 0 0 0 551.122)
(564.816 0 0 0 564.816 0 0 0 564.816)
(582.35 0 0 0 582.35 0 0 0 582.35)
(603.727 0 0 0 603.727 0 0 0 603.727)
(628.815 0 0 0 628.815 0 0 0 628.815)
(657.615 0 0 0 657.615 0 0 0 657.615)
(690.151 0 0 0 690.151 0 0 0 690.151)
(726.474 0 0 0 726.474 0 0 0 726.474)
(766.64 0 0 0 766.64 0 0 0 766.64)
(810.699 0 0 0 810.699 0 0 0 810.699)
(858.684 0 0 0 858.684 0 0 0 858.684)
(910.599 0 0 0 910.599 0 0 0 910.599)
(966.415 0 0 0 966.415 0 0 0 966.415)
(1026.06 0 0 0 1026.06 0 0 0 1026.06)
(1089.42 0 0 0 1089.42 0 0 0 1089.42)
(1156.32 0 0 0 1156.32 0 0 0 1156.32)
(1226.12 0 0 0 1226.12 0 0 0 1226.12)
(1297.98 0 0 0 1297.98 0 0 0 1297.98)
(1371.77 0 0 0 1371.77 0 0 0 1371.77)
(1447.52 0 0 0 1447.52 0 0 0 1447.52)
(1525.24 0 0 0 1525.24 0 0 0 1525.24)
(1604.83 0 0 0 1604.83 0 0 0 1604.83)
(1686.16 0 0 0 1686.16 0 0 0 1686.16)
(1769.05 0 0 0 1769.05 0 0 0 1769.05)
(1853.45 0 0 0 1853.45 0 0 0 1853.45)
(1936.11 0 0 0 1936.11 0 0 0 1936.11)
)
;

boundaryField
{
    inlet
    {
        type            zeroGradient;
    }
    outlet
    {
        type            zeroGradient;
    }
    fixedWalls
    {
        type            zeroGradient;
    }
}


// ************************************************************************* //
