/*--------------------------------*- C++ -*----------------------------------*\
| =========                 |                                                 |
| \\      /  F ield         | OpenFOAM: The Open Source CFD Toolbox           |
|  \\    /   O peration     | Version:  2406                                  |
|   \\  /    A nd           | Website:  www.openfoam.com                      |
|    \\/     M anipulation  |                                                 |
\*---------------------------------------------------------------------------*/
FoamFile
{
    version     2.0;
    format      ascii;
    arch        "LSB;label=32;scalar=64";
    class       volScalarField;
    location    "30/fluidRegion";
    object      p;
}
// * * * * * * * * * * * * * * * * * * * * * * * * * * * * * * * * * * * * * //

dimensions      [1 -1 -2 0 0 0 0];

internalField   nonuniform List<scalar> 
70
(
7.20401e+06
7.20382e+06
7.20363e+06
7.20344e+06
7.20325e+06
7.20306e+06
7.20287e+06
7.20268e+06
7.20249e+06
7.2023e+06
7.20211e+06
7.20192e+06
7.20174e+06
7.20155e+06
7.20136e+06
7.20117e+06
7.20098e+06
7.20079e+06
7.2006e+06
7.20041e+06
7.20022e+06
7.20003e+06
7.19984e+06
7.19965e+06
7.19946e+06
7.19927e+06
7.19909e+06
7.1989e+06
7.19871e+06
7.19852e+06
7.19833e+06
7.19814e+06
7.19795e+06
7.19777e+06
7.19758e+06
7.19739e+06
7.1972e+06
7.19701e+06
7.19682e+06
7.19664e+06
7.19645e+06
7.19626e+06
7.19607e+06
7.19588e+06
7.1957e+06
7.19551e+06
7.19532e+06
7.19513e+06
7.19493e+06
7.19474e+06
7.19454e+06
7.19435e+06
7.19415e+06
7.19395e+06
7.19375e+06
7.19355e+06
7.19334e+06
7.19313e+06
7.19292e+06
7.19271e+06
7.19249e+06
7.19228e+06
7.19206e+06
7.19184e+06
7.19161e+06
7.19138e+06
7.19116e+06
7.19092e+06
7.19069e+06
7.19045e+06
)
;

boundaryField
{
    inlet
    {
        type            calculated;
        value           uniform 7.20411e+06;
    }
    outlet
    {
        type            calculated;
        value           uniform 7.19033e+06;
    }
    fixedWalls
    {
        type            calculated;
        value           nonuniform List<scalar> 
280
(
7.20401e+06
7.20382e+06
7.20363e+06
7.20344e+06
7.20325e+06
7.20306e+06
7.20287e+06
7.20268e+06
7.20249e+06
7.2023e+06
7.20211e+06
7.20192e+06
7.20174e+06
7.20155e+06
7.20136e+06
7.20117e+06
7.20098e+06
7.20079e+06
7.2006e+06
7.20041e+06
7.20022e+06
7.20003e+06
7.19984e+06
7.19965e+06
7.19946e+06
7.19927e+06
7.19909e+06
7.1989e+06
7.19871e+06
7.19852e+06
7.19833e+06
7.19814e+06
7.19795e+06
7.19777e+06
7.19758e+06
7.19739e+06
7.1972e+06
7.19701e+06
7.19682e+06
7.19664e+06
7.19645e+06
7.19626e+06
7.19607e+06
7.19588e+06
7.1957e+06
7.19551e+06
7.19532e+06
7.19513e+06
7.19493e+06
7.19474e+06
7.19454e+06
7.19435e+06
7.19415e+06
7.19395e+06
7.19375e+06
7.19355e+06
7.19334e+06
7.19313e+06
7.19292e+06
7.19271e+06
7.19249e+06
7.19228e+06
7.19206e+06
7.19184e+06
7.19161e+06
7.19138e+06
7.19116e+06
7.19092e+06
7.19069e+06
7.19045e+06
7.20401e+06
7.20382e+06
7.20363e+06
7.20344e+06
7.20325e+06
7.20306e+06
7.20287e+06
7.20268e+06
7.20249e+06
7.2023e+06
7.20211e+06
7.20192e+06
7.20174e+06
7.20155e+06
7.20136e+06
7.20117e+06
7.20098e+06
7.20079e+06
7.2006e+06
7.20041e+06
7.20022e+06
7.20003e+06
7.19984e+06
7.19965e+06
7.19946e+06
7.19927e+06
7.19909e+06
7.1989e+06
7.19871e+06
7.19852e+06
7.19833e+06
7.19814e+06
7.19795e+06
7.19777e+06
7.19758e+06
7.19739e+06
7.1972e+06
7.19701e+06
7.19682e+06
7.19664e+06
7.19645e+06
7.19626e+06
7.19607e+06
7.19588e+06
7.1957e+06
7.19551e+06
7.19532e+06
7.19513e+06
7.19493e+06
7.19474e+06
7.19454e+06
7.19435e+06
7.19415e+06
7.19395e+06
7.19375e+06
7.19355e+06
7.19334e+06
7.19313e+06
7.19292e+06
7.19271e+06
7.19249e+06
7.19228e+06
7.19206e+06
7.19184e+06
7.19161e+06
7.19138e+06
7.19116e+06
7.19092e+06
7.19069e+06
7.19045e+06
7.20401e+06
7.20382e+06
7.20363e+06
7.20344e+06
7.20325e+06
7.20306e+06
7.20287e+06
7.20268e+06
7.20249e+06
7.2023e+06
7.20211e+06
7.20192e+06
7.20174e+06
7.20155e+06
7.20136e+06
7.20117e+06
7.20098e+06
7.20079e+06
7.2006e+06
7.20041e+06
7.20022e+06
7.20003e+06
7.19984e+06
7.19965e+06
7.19946e+06
7.19927e+06
7.19909e+06
7.1989e+06
7.19871e+06
7.19852e+06
7.19833e+06
7.19814e+06
7.19795e+06
7.19777e+06
7.19758e+06
7.19739e+06
7.1972e+06
7.19701e+06
7.19682e+06
7.19664e+06
7.19645e+06
7.19626e+06
7.19607e+06
7.19588e+06
7.1957e+06
7.19551e+06
7.19532e+06
7.19513e+06
7.19493e+06
7.19474e+06
7.19454e+06
7.19435e+06
7.19415e+06
7.19395e+06
7.19375e+06
7.19355e+06
7.19334e+06
7.19313e+06
7.19292e+06
7.19271e+06
7.19249e+06
7.19228e+06
7.19206e+06
7.19184e+06
7.19161e+06
7.19138e+06
7.19116e+06
7.19092e+06
7.19069e+06
7.19045e+06
7.20401e+06
7.20382e+06
7.20363e+06
7.20344e+06
7.20325e+06
7.20306e+06
7.20287e+06
7.20268e+06
7.20249e+06
7.2023e+06
7.20211e+06
7.20192e+06
7.20174e+06
7.20155e+06
7.20136e+06
7.20117e+06
7.20098e+06
7.20079e+06
7.2006e+06
7.20041e+06
7.20022e+06
7.20003e+06
7.19984e+06
7.19965e+06
7.19946e+06
7.19927e+06
7.19909e+06
7.1989e+06
7.19871e+06
7.19852e+06
7.19833e+06
7.19814e+06
7.19795e+06
7.19777e+06
7.19758e+06
7.19739e+06
7.1972e+06
7.19701e+06
7.19682e+06
7.19664e+06
7.19645e+06
7.19626e+06
7.19607e+06
7.19588e+06
7.1957e+06
7.19551e+06
7.19532e+06
7.19513e+06
7.19493e+06
7.19474e+06
7.19454e+06
7.19435e+06
7.19415e+06
7.19395e+06
7.19375e+06
7.19355e+06
7.19334e+06
7.19313e+06
7.19292e+06
7.19271e+06
7.19249e+06
7.19228e+06
7.19206e+06
7.19184e+06
7.19161e+06
7.19138e+06
7.19116e+06
7.19092e+06
7.19069e+06
7.19045e+06
)
;
    }
}


// ************************************************************************* //
