/*--------------------------------*- C++ -*----------------------------------*\
| =========                 |                                                 |
| \\      /  F ield         | OpenFOAM: The Open Source CFD Toolbox           |
|  \\    /   O peration     | Version:  2406                                  |
|   \\  /    A nd           | Website:  www.openfoam.com                      |
|    \\/     M anipulation  |                                                 |
\*---------------------------------------------------------------------------*/
FoamFile
{
    version     2.0;
    format      ascii;
    arch        "LSB;label=32;scalar=64";
    class       volScalarField;
    location    "0.6/fluidRegion";
    object      alphaRhoMagU.vapour;
}
// * * * * * * * * * * * * * * * * * * * * * * * * * * * * * * * * * * * * * //

dimensions      [1 -2 -1 0 0 0 0];

internalField   nonuniform List<scalar> 
80
(
0
0
0
0
0
0
0
0
0
0
0.57124
1.79643
3.2912
4.80563
6.30598
7.83785
9.43902
11.1475
12.992
14.9894
17.1466
19.4694
21.9655
24.7722
27.8625
31.0791
34.3226
37.551
40.7435
43.8828
46.9117
49.8138
52.5946
55.2604
57.8161
60.2666
62.6163
64.8695
67.0301
69.1017
71.0878
72.9915
74.816
76.5639
78.2378
79.8398
81.3716
82.8344
84.2288
85.5544
86.8096
87.9913
89.0947
90.1125
91.0358
91.854
92.5569
93.1365
93.591
93.9283
94.1689
94.3502
94.5118
94.6676
94.8178
94.9612
95.0973
95.2251
95.3439
95.4528
95.5511
95.6381
95.7129
95.7747
95.8243
95.8536
95.8893
95.9199
95.9483
95.9703
)
;

boundaryField
{
    inlet
    {
        type            calculated;
        value           uniform 0;
    }
    outlet
    {
        type            calculated;
        value           uniform 95.9586;
    }
    fixedWalls
    {
        type            calculated;
        value           nonuniform List<scalar> 
320
(
0
0
0
0
0
0
0
0
0
0
0.57124
1.79643
3.2912
4.80563
6.30598
7.83785
9.43902
11.1475
12.992
14.9894
17.1466
19.4694
21.9655
24.7722
27.8625
31.0791
34.3226
37.551
40.7435
43.8828
46.9117
49.8138
52.5946
55.2604
57.8161
60.2666
62.6163
64.8695
67.0301
69.1017
71.0878
72.9915
74.816
76.5639
78.2378
79.8398
81.3716
82.8344
84.2288
85.5544
86.8096
87.9913
89.0947
90.1125
91.0358
91.854
92.5569
93.1365
93.591
93.9283
94.1689
94.3502
94.5118
94.6676
94.8178
94.9612
95.0973
95.2251
95.3439
95.4528
95.5511
95.6381
95.7129
95.7747
95.8243
95.8536
95.8893
95.9199
95.9483
95.9703
0
0
0
0
0
0
0
0
0
0
0.57124
1.79643
3.2912
4.80563
6.30598
7.83785
9.43902
11.1475
12.992
14.9894
17.1466
19.4694
21.9655
24.7722
27.8625
31.0791
34.3226
37.551
40.7435
43.8828
46.9117
49.8138
52.5946
55.2604
57.8161
60.2666
62.6163
64.8695
67.0301
69.1017
71.0878
72.9915
74.816
76.5639
78.2378
79.8398
81.3716
82.8344
84.2288
85.5544
86.8096
87.9913
89.0947
90.1125
91.0358
91.854
92.5569
93.1365
93.591
93.9283
94.1689
94.3502
94.5118
94.6676
94.8178
94.9612
95.0973
95.2251
95.3439
95.4528
95.5511
95.6381
95.7129
95.7747
95.8243
95.8536
95.8893
95.9199
95.9483
95.9703
0
0
0
0
0
0
0
0
0
0
0.57124
1.79643
3.2912
4.80563
6.30598
7.83785
9.43902
11.1475
12.992
14.9894
17.1466
19.4694
21.9655
24.7722
27.8625
31.0791
34.3226
37.551
40.7435
43.8828
46.9117
49.8138
52.5946
55.2604
57.8161
60.2666
62.6163
64.8695
67.0301
69.1017
71.0878
72.9915
74.816
76.5639
78.2378
79.8398
81.3716
82.8344
84.2288
85.5544
86.8096
87.9913
89.0947
90.1125
91.0358
91.854
92.5569
93.1365
93.591
93.9283
94.1689
94.3502
94.5118
94.6676
94.8178
94.9612
95.0973
95.2251
95.3439
95.4528
95.5511
95.6381
95.7129
95.7747
95.8243
95.8536
95.8893
95.9199
95.9483
95.9703
0
0
0
0
0
0
0
0
0
0
0.57124
1.79643
3.2912
4.80563
6.30598
7.83785
9.43902
11.1475
12.992
14.9894
17.1466
19.4694
21.9655
24.7722
27.8625
31.0791
34.3226
37.551
40.7435
43.8828
46.9117
49.8138
52.5946
55.2604
57.8161
60.2666
62.6163
64.8695
67.0301
69.1017
71.0878
72.9915
74.816
76.5639
78.2378
79.8398
81.3716
82.8344
84.2288
85.5544
86.8096
87.9913
89.0947
90.1125
91.0358
91.854
92.5569
93.1365
93.591
93.9283
94.1689
94.3502
94.5118
94.6676
94.8178
94.9612
95.0973
95.2251
95.3439
95.4528
95.5511
95.6381
95.7129
95.7747
95.8243
95.8536
95.8893
95.9199
95.9483
95.9703
)
;
    }
}


// ************************************************************************* //
