/*--------------------------------*- C++ -*----------------------------------*\
| =========                 |                                                 |
| \\      /  F ield         | OpenFOAM: The Open Source CFD Toolbox           |
|  \\    /   O peration     | Version:  2406                                  |
|   \\  /    A nd           | Website:  www.openfoam.com                      |
|    \\/     M anipulation  |                                                 |
\*---------------------------------------------------------------------------*/
FoamFile
{
    version     2.0;
    format      ascii;
    arch        "LSB;label=32;scalar=64";
    class       volScalarField;
    location    "0.6/fluidRegion";
    object      dgdt.vapour;
}
// * * * * * * * * * * * * * * * * * * * * * * * * * * * * * * * * * * * * * //

dimensions      [0 0 -1 0 0 0 0];

internalField   nonuniform List<scalar> 
80
(
-0
-0
-0
-0
-0
-0
-0
-0
-0
-0
0.934676
1.92745
2.27243
2.26341
2.25212
2.31757
2.43212
2.60563
2.82013
3.05737
3.30239
3.55826
3.81437
4.35988
4.7661
4.8942
4.91684
4.88875
4.83182
4.75112
4.55441
4.3663
4.18652
4.01474
3.85049
3.69338
3.54301
3.39898
3.26092
3.12848
3.00129
2.87901
2.76127
2.64767
2.5378
2.43113
2.32703
2.2247
2.12304
2.02066
1.91573
1.80593
1.68845
1.56009
1.41789
1.25992
1.08723
0.903598
0.719736
0.551074
0.416513
0.344138
0.337491
0.331275
0.323714
0.314848
0.304727
0.293399
0.280911
0.267305
0.252621
0.236894
0.220152
0.202416
0.183682
0.184434
0.177567
0.174424
0.171276
0.189201
)
;

boundaryField
{
    inlet
    {
        type            calculated;
        value           uniform -0;
    }
    outlet
    {
        type            calculated;
        value           uniform 0.189201;
    }
    fixedWalls
    {
        type            calculated;
        value           nonuniform List<scalar> 
320
(
-0
-0
-0
-0
-0
-0
-0
-0
-0
-0
0.934676
1.92745
2.27243
2.26341
2.25212
2.31757
2.43212
2.60563
2.82013
3.05737
3.30239
3.55826
3.81437
4.35988
4.7661
4.8942
4.91684
4.88875
4.83182
4.75112
4.55441
4.3663
4.18652
4.01474
3.85049
3.69338
3.54301
3.39898
3.26092
3.12848
3.00129
2.87901
2.76127
2.64767
2.5378
2.43113
2.32703
2.2247
2.12304
2.02066
1.91573
1.80593
1.68845
1.56009
1.41789
1.25992
1.08723
0.903598
0.719736
0.551074
0.416513
0.344138
0.337491
0.331275
0.323714
0.314848
0.304727
0.293399
0.280911
0.267305
0.252621
0.236894
0.220152
0.202416
0.183682
0.184434
0.177567
0.174424
0.171276
0.189201
-0
-0
-0
-0
-0
-0
-0
-0
-0
-0
0.934676
1.92745
2.27243
2.26341
2.25212
2.31757
2.43212
2.60563
2.82013
3.05737
3.30239
3.55826
3.81437
4.35988
4.7661
4.8942
4.91684
4.88875
4.83182
4.75112
4.55441
4.3663
4.18652
4.01474
3.85049
3.69338
3.54301
3.39898
3.26092
3.12848
3.00129
2.87901
2.76127
2.64767
2.5378
2.43113
2.32703
2.2247
2.12304
2.02066
1.91573
1.80593
1.68845
1.56009
1.41789
1.25992
1.08723
0.903598
0.719736
0.551074
0.416513
0.344138
0.337491
0.331275
0.323714
0.314848
0.304727
0.293399
0.280911
0.267305
0.252621
0.236894
0.220152
0.202416
0.183682
0.184434
0.177567
0.174424
0.171276
0.189201
-0
-0
-0
-0
-0
-0
-0
-0
-0
-0
0.934676
1.92745
2.27243
2.26341
2.25212
2.31757
2.43212
2.60563
2.82013
3.05737
3.30239
3.55826
3.81437
4.35988
4.7661
4.8942
4.91684
4.88875
4.83182
4.75112
4.55441
4.3663
4.18652
4.01474
3.85049
3.69338
3.54301
3.39898
3.26092
3.12848
3.00129
2.87901
2.76127
2.64767
2.5378
2.43113
2.32703
2.2247
2.12304
2.02066
1.91573
1.80593
1.68845
1.56009
1.41789
1.25992
1.08723
0.903598
0.719736
0.551074
0.416513
0.344138
0.337491
0.331275
0.323714
0.314848
0.304727
0.293399
0.280911
0.267305
0.252621
0.236894
0.220152
0.202416
0.183682
0.184434
0.177567
0.174424
0.171276
0.189201
-0
-0
-0
-0
-0
-0
-0
-0
-0
-0
0.934676
1.92745
2.27243
2.26341
2.25212
2.31757
2.43212
2.60563
2.82013
3.05737
3.30239
3.55826
3.81437
4.35988
4.7661
4.8942
4.91684
4.88875
4.83182
4.75112
4.55441
4.3663
4.18652
4.01474
3.85049
3.69338
3.54301
3.39898
3.26092
3.12848
3.00129
2.87901
2.76127
2.64767
2.5378
2.43113
2.32703
2.2247
2.12304
2.02066
1.91573
1.80593
1.68845
1.56009
1.41789
1.25992
1.08723
0.903598
0.719736
0.551074
0.416513
0.344138
0.337491
0.331275
0.323714
0.314848
0.304727
0.293399
0.280911
0.267305
0.252621
0.236894
0.220152
0.202416
0.183682
0.184434
0.177567
0.174424
0.171276
0.189201
)
;
    }
}


// ************************************************************************* //
