/*--------------------------------*- C++ -*----------------------------------*\
| =========                 |                                                 |
| \\      /  F ield         | OpenFOAM: The Open Source CFD Toolbox           |
|  \\    /   O peration     | Version:  2406                                  |
|   \\  /    A nd           | Website:  www.openfoam.com                      |
|    \\/     M anipulation  |                                                 |
\*---------------------------------------------------------------------------*/
FoamFile
{
    version     2.0;
    format      ascii;
    arch        "LSB;label=32;scalar=64";
    class       volTensorField;
    location    "0.6/fluidRegion";
    object      Kd.liquid.structure;
}
// * * * * * * * * * * * * * * * * * * * * * * * * * * * * * * * * * * * * * //

dimensions      [1 -3 -1 0 0 0 0];

internalField   nonuniform List<tensor> 
80
(
(1061.87 0 0 0 1061.87 0 0 0 1061.87)
(1061.87 0 0 0 1061.87 0 0 0 1061.87)
(1061.87 0 0 0 1061.87 0 0 0 1061.87)
(1061.87 0 0 0 1061.87 0 0 0 1061.87)
(1061.87 0 0 0 1061.87 0 0 0 1061.87)
(1061.33 0 0 0 1061.33 0 0 0 1061.33)
(1060.33 0 0 0 1060.33 0 0 0 1060.33)
(1059.02 0 0 0 1059.02 0 0 0 1059.02)
(1057.42 0 0 0 1057.42 0 0 0 1057.42)
(1055.59 0 0 0 1055.59 0 0 0 1055.59)
(1128.23 0 0 0 1128.23 0 0 0 1128.23)
(1261.48 0 0 0 1261.48 0 0 0 1261.48)
(1410.13 0 0 0 1410.13 0 0 0 1410.13)
(1550.03 0 0 0 1550.03 0 0 0 1550.03)
(1679.99 0 0 0 1679.99 0 0 0 1679.99)
(1805.58 0 0 0 1805.58 0 0 0 1805.58)
(1930.74 0 0 0 1930.74 0 0 0 1930.74)
(2058.52 0 0 0 2058.52 0 0 0 2058.52)
(2190.9 0 0 0 2190.9 0 0 0 2190.9)
(2328.62 0 0 0 2328.62 0 0 0 2328.62)
(2471.63 0 0 0 2471.63 0 0 0 2471.63)
(2619.71 0 0 0 2619.71 0 0 0 2619.71)
(2772.6 0 0 0 2772.6 0 0 0 2772.6)
(2937.7 0 0 0 2937.7 0 0 0 2937.7)
(3113.2 0 0 0 3113.2 0 0 0 3113.2)
(3289.16 0 0 0 3289.16 0 0 0 3289.16)
(3459.64 0 0 0 3459.64 0 0 0 3459.64)
(3622.98 0 0 0 3622.98 0 0 0 3622.98)
(3778.9 0 0 0 3778.9 0 0 0 3778.9)
(3927.41 0 0 0 3927.41 0 0 0 3927.41)
(4066.63 0 0 0 4066.63 0 0 0 4066.63)
(4196.28 0 0 0 4196.28 0 0 0 4196.28)
(4317.43 0 0 0 4317.43 0 0 0 4317.43)
(4430.98 0 0 0 4430.98 0 0 0 4430.98)
(4537.66 0 0 0 4537.66 0 0 0 4537.66)
(4638.1 0 0 0 4638.1 0 0 0 4638.1)
(4732.83 0 0 0 4732.83 0 0 0 4732.83)
(4822.29 0 0 0 4822.29 0 0 0 4822.29)
(4906.91 0 0 0 4906.91 0 0 0 4906.91)
(4987.01 0 0 0 4987.01 0 0 0 4987.01)
(5062.93 0 0 0 5062.93 0 0 0 5062.93)
(5134.92 0 0 0 5134.92 0 0 0 5134.92)
(5203.24 0 0 0 5203.24 0 0 0 5203.24)
(5268.11 0 0 0 5268.11 0 0 0 5268.11)
(5329.73 0 0 0 5329.73 0 0 0 5329.73)
(5388.25 0 0 0 5388.25 0 0 0 5388.25)
(5443.82 0 0 0 5443.82 0 0 0 5443.82)
(5496.57 0 0 0 5496.57 0 0 0 5496.57)
(5546.57 0 0 0 5546.57 0 0 0 5546.57)
(5593.88 0 0 0 5593.88 0 0 0 5593.88)
(5638.52 0 0 0 5638.52 0 0 0 5638.52)
(5680.43 0 0 0 5680.43 0 0 0 5680.43)
(5719.5 0 0 0 5719.5 0 0 0 5719.5)
(5755.57 0 0 0 5755.57 0 0 0 5755.57)
(5788.38 0 0 0 5788.38 0 0 0 5788.38)
(5817.64 0 0 0 5817.64 0 0 0 5817.64)
(5843.05 0 0 0 5843.05 0 0 0 5843.05)
(5864.35 0 0 0 5864.35 0 0 0 5864.35)
(5881.48 0 0 0 5881.48 0 0 0 5881.48)
(5894.65 0 0 0 5894.65 0 0 0 5894.65)
(5904.49 0 0 0 5904.49 0 0 0 5904.49)
(5912.13 0 0 0 5912.13 0 0 0 5912.13)
(5919 0 0 0 5919 0 0 0 5919)
(5925.81 0 0 0 5925.81 0 0 0 5925.81)
(5932.56 0 0 0 5932.56 0 0 0 5932.56)
(5939.22 0 0 0 5939.22 0 0 0 5939.22)
(5945.75 0 0 0 5945.75 0 0 0 5945.75)
(5952.11 0 0 0 5952.11 0 0 0 5952.11)
(5958.29 0 0 0 5958.29 0 0 0 5958.29)
(5964.24 0 0 0 5964.24 0 0 0 5964.24)
(5969.94 0 0 0 5969.94 0 0 0 5969.94)
(5975.36 0 0 0 5975.36 0 0 0 5975.36)
(5980.47 0 0 0 5980.47 0 0 0 5980.47)
(5985.25 0 0 0 5985.25 0 0 0 5985.25)
(5989.65 0 0 0 5989.65 0 0 0 5989.65)
(5992.52 0 0 0 5992.52 0 0 0 5992.52)
(5995.57 0 0 0 5995.57 0 0 0 5995.57)
(5998.35 0 0 0 5998.35 0 0 0 5998.35)
(6000.97 0 0 0 6000.97 0 0 0 6000.97)
(6003.94 0 0 0 6003.94 0 0 0 6003.94)
)
;

boundaryField
{
    inlet
    {
        type            zeroGradient;
    }
    outlet
    {
        type            zeroGradient;
    }
    fixedWalls
    {
        type            zeroGradient;
    }
}


// ************************************************************************* //
