/*--------------------------------*- C++ -*----------------------------------*\
| =========                 |                                                 |
| \\      /  F ield         | OpenFOAM: The Open Source CFD Toolbox           |
|  \\    /   O peration     | Version:  2406                                  |
|   \\  /    A nd           | Website:  www.openfoam.com                      |
|    \\/     M anipulation  |                                                 |
\*---------------------------------------------------------------------------*/
FoamFile
{
    version     2.0;
    format      ascii;
    arch        "LSB;label=32;scalar=64";
    class       volTensorField;
    location    "0.6/fluidRegion";
    object      KdTotU;
}
// * * * * * * * * * * * * * * * * * * * * * * * * * * * * * * * * * * * * * //

dimensions      [1 -2 -2 0 0 0 0];

internalField   nonuniform List<tensor> 
80
(
(4736.89 0 0 0 4736.89 0 0 0 4736.89)
(4736.89 0 0 0 4736.89 0 0 0 4736.89)
(4736.89 0 0 0 4736.89 0 0 0 4736.89)
(4736.89 0 0 0 4736.89 0 0 0 4736.89)
(4736.89 0 0 0 4736.89 0 0 0 4736.89)
(4735.11 0 0 0 4735.11 0 0 0 4735.11)
(4732.5 0 0 0 4732.5 0 0 0 4732.5)
(4729.73 0 0 0 4729.73 0 0 0 4729.73)
(4726.87 0 0 0 4726.87 0 0 0 4726.87)
(4724.17 0 0 0 4724.17 0 0 0 4724.17)
(5075.97 0 0 0 5075.97 0 0 0 5075.97)
(5744.34 0 0 0 5744.34 0 0 0 5744.34)
(6519.75 0 0 0 6519.75 0 0 0 6519.75)
(7276.19 0 0 0 7276.19 0 0 0 7276.19)
(8001.17 0 0 0 8001.17 0 0 0 8001.17)
(8721.32 0 0 0 8721.32 0 0 0 8721.32)
(9457.48 0 0 0 9457.48 0 0 0 9457.48)
(10227.3 0 0 0 10227.3 0 0 0 10227.3)
(11043.8 0 0 0 11043.8 0 0 0 11043.8)
(11913.9 0 0 0 11913.9 0 0 0 11913.9)
(12839.7 0 0 0 12839.7 0 0 0 12839.7)
(13822.5 0 0 0 13822.5 0 0 0 13822.5)
(14863.6 0 0 0 14863.6 0 0 0 14863.6)
(16011.9 0 0 0 16011.9 0 0 0 16011.9)
(17264.1 0 0 0 17264.1 0 0 0 17264.1)
(18557.9 0 0 0 18557.9 0 0 0 18557.9)
(19850.1 0 0 0 19850.1 0 0 0 19850.1)
(21124.1 0 0 0 21124.1 0 0 0 21124.1)
(22372.4 0 0 0 22372.4 0 0 0 22372.4)
(23589.8 0 0 0 23589.8 0 0 0 23589.8)
(24758 0 0 0 24758 0 0 0 24758)
(25869.1 0 0 0 25869.1 0 0 0 25869.1)
(26926.9 0 0 0 26926.9 0 0 0 26926.9)
(27934.6 0 0 0 27934.6 0 0 0 27934.6)
(28895.3 0 0 0 28895.3 0 0 0 28895.3)
(29811.7 0 0 0 29811.7 0 0 0 29811.7)
(30686.1 0 0 0 30686.1 0 0 0 30686.1)
(31520.9 0 0 0 31520.9 0 0 0 31520.9)
(32318.2 0 0 0 32318.2 0 0 0 32318.2)
(33079.7 0 0 0 33079.7 0 0 0 33079.7)
(33807.4 0 0 0 33807.4 0 0 0 33807.4)
(34502.6 0 0 0 34502.6 0 0 0 34502.6)
(35167.1 0 0 0 35167.1 0 0 0 35167.1)
(35802 0 0 0 35802 0 0 0 35802)
(36408.7 0 0 0 36408.7 0 0 0 36408.7)
(36988.1 0 0 0 36988.1 0 0 0 36988.1)
(37541.3 0 0 0 37541.3 0 0 0 37541.3)
(38068.9 0 0 0 38068.9 0 0 0 38068.9)
(38571.4 0 0 0 38571.4 0 0 0 38571.4)
(39049.1 0 0 0 39049.1 0 0 0 39049.1)
(39501.8 0 0 0 39501.8 0 0 0 39501.8)
(39928.7 0 0 0 39928.7 0 0 0 39928.7)
(40328.8 0 0 0 40328.8 0 0 0 40328.8)
(40700 0 0 0 40700 0 0 0 40700)
(41039.8 0 0 0 41039.8 0 0 0 41039.8)
(41345.2 0 0 0 41345.2 0 0 0 41345.2)
(41613 0 0 0 41613 0 0 0 41613)
(41840.7 0 0 0 41840.7 0 0 0 41840.7)
(42027.5 0 0 0 42027.5 0 0 0 42027.5)
(42175.4 0 0 0 42175.4 0 0 0 42175.4)
(42290.2 0 0 0 42290.2 0 0 0 42290.2)
(42383.1 0 0 0 42383.1 0 0 0 42383.1)
(42467.8 0 0 0 42467.8 0 0 0 42467.8)
(42551.2 0 0 0 42551.2 0 0 0 42551.2)
(42633.2 0 0 0 42633.2 0 0 0 42633.2)
(42713.5 0 0 0 42713.5 0 0 0 42713.5)
(42791.9 0 0 0 42791.9 0 0 0 42791.9)
(42868.1 0 0 0 42868.1 0 0 0 42868.1)
(42941.8 0 0 0 42941.8 0 0 0 42941.8)
(43012.7 0 0 0 43012.7 0 0 0 43012.7)
(43080.7 0 0 0 43080.7 0 0 0 43080.7)
(43145.5 0 0 0 43145.5 0 0 0 43145.5)
(43207 0 0 0 43207 0 0 0 43207)
(43264.8 0 0 0 43264.8 0 0 0 43264.8)
(43319 0 0 0 43319 0 0 0 43319)
(43362.4 0 0 0 43362.4 0 0 0 43362.4)
(43408.4 0 0 0 43408.4 0 0 0 43408.4)
(43453.7 0 0 0 43453.7 0 0 0 43453.7)
(43498.6 0 0 0 43498.6 0 0 0 43498.6)
(43544.5 0 0 0 43544.5 0 0 0 43544.5)
)
;

boundaryField
{
    inlet
    {
        type            zeroGradient;
    }
    outlet
    {
        type            zeroGradient;
    }
    fixedWalls
    {
        type            zeroGradient;
    }
}


// ************************************************************************* //
