/*--------------------------------*- C++ -*----------------------------------*\
| =========                 |                                                 |
| \\      /  F ield         | OpenFOAM: The Open Source CFD Toolbox           |
|  \\    /   O peration     | Version:  2406                                  |
|   \\  /    A nd           | Website:  www.openfoam.com                      |
|    \\/     M anipulation  |                                                 |
\*---------------------------------------------------------------------------*/
FoamFile
{
    version     2.0;
    format      ascii;
    arch        "LSB;label=32;scalar=64";
    class       volScalarField;
    location    "30/fluidRegion";
    object      alphaRhoMagU.vapour;
}
// * * * * * * * * * * * * * * * * * * * * * * * * * * * * * * * * * * * * * //

dimensions      [1 -2 -1 0 0 0 0];

internalField   nonuniform List<scalar> 
75
(
0
0
0
0
0
0
0
0
0
0
0
0.00445757
0.069812
0.187007
0.34599
0.547876
0.794261
1.08962
1.43971
1.85154
2.3329
2.89199
3.53691
4.27502
5.11219
6.05198
7.09745
8.29138
9.57833
10.9158
12.2847
13.6691
15.0633
16.4665
17.8782
19.2981
20.7259
22.1613
23.6041
25.0541
26.5111
27.9749
29.4454
30.9223
32.4055
33.8947
35.3899
36.8916
38.4009
39.9182
41.4434
42.9762
44.5164
46.0638
47.6182
49.1794
50.7471
52.3212
53.9012
55.4885
57.0661
58.6181
60.1646
61.7065
63.2472
64.7873
66.3277
67.8687
69.4107
70.9541
72.4994
74.0456
75.598
77.1314
78.7719
)
;

boundaryField
{
    inlet
    {
        type            calculated;
        value           uniform 0;
    }
    outlet
    {
        type            calculated;
        value           uniform 78.7684;
    }
    fixedWalls
    {
        type            calculated;
        value           nonuniform List<scalar> 
300
(
0
0
0
0
0
0
0
0
0
0
0
0.00445757
0.069812
0.187007
0.34599
0.547876
0.794261
1.08962
1.43971
1.85154
2.3329
2.89199
3.53691
4.27502
5.11219
6.05198
7.09745
8.29138
9.57833
10.9158
12.2847
13.6691
15.0633
16.4665
17.8782
19.2981
20.7259
22.1613
23.6041
25.0541
26.5111
27.9749
29.4454
30.9223
32.4055
33.8947
35.3899
36.8916
38.4009
39.9182
41.4434
42.9762
44.5164
46.0638
47.6182
49.1794
50.7471
52.3212
53.9012
55.4885
57.0661
58.6181
60.1646
61.7065
63.2472
64.7873
66.3277
67.8687
69.4107
70.9541
72.4994
74.0456
75.598
77.1314
78.7719
0
0
0
0
0
0
0
0
0
0
0
0.00445757
0.069812
0.187007
0.34599
0.547876
0.794261
1.08962
1.43971
1.85154
2.3329
2.89199
3.53691
4.27502
5.11219
6.05198
7.09745
8.29138
9.57833
10.9158
12.2847
13.6691
15.0633
16.4665
17.8782
19.2981
20.7259
22.1613
23.6041
25.0541
26.5111
27.9749
29.4454
30.9223
32.4055
33.8947
35.3899
36.8916
38.4009
39.9182
41.4434
42.9762
44.5164
46.0638
47.6182
49.1794
50.7471
52.3212
53.9012
55.4885
57.0661
58.6181
60.1646
61.7065
63.2472
64.7873
66.3277
67.8687
69.4107
70.9541
72.4994
74.0456
75.598
77.1314
78.7719
0
0
0
0
0
0
0
0
0
0
0
0.00445757
0.069812
0.187007
0.34599
0.547876
0.794261
1.08962
1.43971
1.85154
2.3329
2.89199
3.53691
4.27502
5.11219
6.05198
7.09745
8.29138
9.57833
10.9158
12.2847
13.6691
15.0633
16.4665
17.8782
19.2981
20.7259
22.1613
23.6041
25.0541
26.5111
27.9749
29.4454
30.9223
32.4055
33.8947
35.3899
36.8916
38.4009
39.9182
41.4434
42.9762
44.5164
46.0638
47.6182
49.1794
50.7471
52.3212
53.9012
55.4885
57.0661
58.6181
60.1646
61.7065
63.2472
64.7873
66.3277
67.8687
69.4107
70.9541
72.4994
74.0456
75.598
77.1314
78.7719
0
0
0
0
0
0
0
0
0
0
0
0.00445757
0.069812
0.187007
0.34599
0.547876
0.794261
1.08962
1.43971
1.85154
2.3329
2.89199
3.53691
4.27502
5.11219
6.05198
7.09745
8.29138
9.57833
10.9158
12.2847
13.6691
15.0633
16.4665
17.8782
19.2981
20.7259
22.1613
23.6041
25.0541
26.5111
27.9749
29.4454
30.9223
32.4055
33.8947
35.3899
36.8916
38.4009
39.9182
41.4434
42.9762
44.5164
46.0638
47.6182
49.1794
50.7471
52.3212
53.9012
55.4885
57.0661
58.6181
60.1646
61.7065
63.2472
64.7873
66.3277
67.8687
69.4107
70.9541
72.4994
74.0456
75.598
77.1314
78.7719
)
;
    }
}


// ************************************************************************* //
