/*--------------------------------*- C++ -*----------------------------------*\
| =========                 |                                                 |
| \\      /  F ield         | OpenFOAM: The Open Source CFD Toolbox           |
|  \\    /   O peration     | Version:  2406                                  |
|   \\  /    A nd           | Website:  www.openfoam.com                      |
|    \\/     M anipulation  |                                                 |
\*---------------------------------------------------------------------------*/
FoamFile
{
    version     2.0;
    format      ascii;
    arch        "LSB;label=32;scalar=64";
    class       volScalarField;
    location    "30/fluidRegion";
    object      dgdt.vapour;
}
// * * * * * * * * * * * * * * * * * * * * * * * * * * * * * * * * * * * * * //

dimensions      [0 0 -1 0 0 0 0];

internalField   nonuniform List<scalar> 
75
(
-0
-0
-0
-0
-0
-0
-0
-0
-0
-0
-0
0.00734171
0.114429
0.190609
0.260914
0.330211
0.403823
0.484908
0.575971
0.678892
0.795
0.924926
1.06839
1.22398
1.389
1.55948
1.73033
2.00348
2.11996
2.19321
2.24098
2.25914
2.27461
2.28856
2.30156
2.31393
2.32584
2.3374
2.34866
2.35965
2.37038
2.38088
2.39115
2.40118
2.41099
2.42056
2.4299
2.44052
2.45369
2.46661
2.47926
2.49163
2.50371
2.51547
2.52691
2.53801
2.54879
2.55922
2.5693
2.57903
2.58841
2.54217
2.52108
2.51141
2.50694
2.50537
2.5056
2.50703
2.5093
2.51219
2.51552
2.51922
2.52306
2.52768
2.53536
)
;

boundaryField
{
    inlet
    {
        type            calculated;
        value           uniform -0;
    }
    outlet
    {
        type            calculated;
        value           uniform 2.53536;
    }
    fixedWalls
    {
        type            calculated;
        value           nonuniform List<scalar> 
300
(
-0
-0
-0
-0
-0
-0
-0
-0
-0
-0
-0
0.00734171
0.114429
0.190609
0.260914
0.330211
0.403823
0.484908
0.575971
0.678892
0.795
0.924926
1.06839
1.22398
1.389
1.55948
1.73033
2.00348
2.11996
2.19321
2.24098
2.25914
2.27461
2.28856
2.30156
2.31393
2.32584
2.3374
2.34866
2.35965
2.37038
2.38088
2.39115
2.40118
2.41099
2.42056
2.4299
2.44052
2.45369
2.46661
2.47926
2.49163
2.50371
2.51547
2.52691
2.53801
2.54879
2.55922
2.5693
2.57903
2.58841
2.54217
2.52108
2.51141
2.50694
2.50537
2.5056
2.50703
2.5093
2.51219
2.51552
2.51922
2.52306
2.52768
2.53536
-0
-0
-0
-0
-0
-0
-0
-0
-0
-0
-0
0.00734171
0.114429
0.190609
0.260914
0.330211
0.403823
0.484908
0.575971
0.678892
0.795
0.924926
1.06839
1.22398
1.389
1.55948
1.73033
2.00348
2.11996
2.19321
2.24098
2.25914
2.27461
2.28856
2.30156
2.31393
2.32584
2.3374
2.34866
2.35965
2.37038
2.38088
2.39115
2.40118
2.41099
2.42056
2.4299
2.44052
2.45369
2.46661
2.47926
2.49163
2.50371
2.51547
2.52691
2.53801
2.54879
2.55922
2.5693
2.57903
2.58841
2.54217
2.52108
2.51141
2.50694
2.50537
2.5056
2.50703
2.5093
2.51219
2.51552
2.51922
2.52306
2.52768
2.53536
-0
-0
-0
-0
-0
-0
-0
-0
-0
-0
-0
0.00734171
0.114429
0.190609
0.260914
0.330211
0.403823
0.484908
0.575971
0.678892
0.795
0.924926
1.06839
1.22398
1.389
1.55948
1.73033
2.00348
2.11996
2.19321
2.24098
2.25914
2.27461
2.28856
2.30156
2.31393
2.32584
2.3374
2.34866
2.35965
2.37038
2.38088
2.39115
2.40118
2.41099
2.42056
2.4299
2.44052
2.45369
2.46661
2.47926
2.49163
2.50371
2.51547
2.52691
2.53801
2.54879
2.55922
2.5693
2.57903
2.58841
2.54217
2.52108
2.51141
2.50694
2.50537
2.5056
2.50703
2.5093
2.51219
2.51552
2.51922
2.52306
2.52768
2.53536
-0
-0
-0
-0
-0
-0
-0
-0
-0
-0
-0
0.00734171
0.114429
0.190609
0.260914
0.330211
0.403823
0.484908
0.575971
0.678892
0.795
0.924926
1.06839
1.22398
1.389
1.55948
1.73033
2.00348
2.11996
2.19321
2.24098
2.25914
2.27461
2.28856
2.30156
2.31393
2.32584
2.3374
2.34866
2.35965
2.37038
2.38088
2.39115
2.40118
2.41099
2.42056
2.4299
2.44052
2.45369
2.46661
2.47926
2.49163
2.50371
2.51547
2.52691
2.53801
2.54879
2.55922
2.5693
2.57903
2.58841
2.54217
2.52108
2.51141
2.50694
2.50537
2.5056
2.50703
2.5093
2.51219
2.51552
2.51922
2.52306
2.52768
2.53536
)
;
    }
}


// ************************************************************************* //
