/*--------------------------------*- C++ -*----------------------------------*\
| =========                 |                                                 |
| \\      /  F ield         | OpenFOAM: The Open Source CFD Toolbox           |
|  \\    /   O peration     | Version:  2406                                  |
|   \\  /    A nd           | Website:  www.openfoam.com                      |
|    \\/     M anipulation  |                                                 |
\*---------------------------------------------------------------------------*/
FoamFile
{
    version     2.0;
    format      ascii;
    arch        "LSB;label=32;scalar=64";
    class       volTensorField;
    location    "30/fluidRegion";
    object      Kd.liquid.structure;
}
// * * * * * * * * * * * * * * * * * * * * * * * * * * * * * * * * * * * * * //

dimensions      [1 -3 -1 0 0 0 0];

internalField   nonuniform List<tensor> 
75
(
(418.518 0 0 0 418.518 0 0 0 418.518)
(418.518 0 0 0 418.518 0 0 0 418.518)
(418.518 0 0 0 418.518 0 0 0 418.518)
(418.518 0 0 0 418.518 0 0 0 418.518)
(418.518 0 0 0 418.518 0 0 0 418.518)
(417.834 0 0 0 417.834 0 0 0 417.834)
(417.28 0 0 0 417.28 0 0 0 417.28)
(416.735 0 0 0 416.735 0 0 0 416.735)
(416.197 0 0 0 416.197 0 0 0 416.197)
(415.666 0 0 0 415.666 0 0 0 415.666)
(415.143 0 0 0 415.143 0 0 0 415.143)
(415.824 0 0 0 415.824 0 0 0 415.824)
(428.03 0 0 0 428.03 0 0 0 428.03)
(447.643 0 0 0 447.643 0 0 0 447.643)
(472.17 0 0 0 472.17 0 0 0 472.17)
(501.41 0 0 0 501.41 0 0 0 501.41)
(535.165 0 0 0 535.165 0 0 0 535.165)
(573.608 0 0 0 573.608 0 0 0 573.608)
(616.998 0 0 0 616.998 0 0 0 616.998)
(665.651 0 0 0 665.651 0 0 0 665.651)
(719.872 0 0 0 719.872 0 0 0 719.872)
(779.905 0 0 0 779.905 0 0 0 779.905)
(845.883 0 0 0 845.883 0 0 0 845.883)
(917.781 0 0 0 917.781 0 0 0 917.781)
(995.381 0 0 0 995.381 0 0 0 995.381)
(1078.25 0 0 0 1078.25 0 0 0 1078.25)
(1165.82 0 0 0 1165.82 0 0 0 1165.82)
(1260.82 0 0 0 1260.82 0 0 0 1260.82)
(1358.64 0 0 0 1358.64 0 0 0 1358.64)
(1455.38 0 0 0 1455.38 0 0 0 1455.38)
(1549.85 0 0 0 1549.85 0 0 0 1549.85)
(1641.31 0 0 0 1641.31 0 0 0 1641.31)
(1729.72 0 0 0 1729.72 0 0 0 1729.72)
(1815.43 0 0 0 1815.43 0 0 0 1815.43)
(1898.71 0 0 0 1898.71 0 0 0 1898.71)
(1979.82 0 0 0 1979.82 0 0 0 1979.82)
(2058.98 0 0 0 2058.98 0 0 0 2058.98)
(2136.36 0 0 0 2136.36 0 0 0 2136.36)
(2212.13 0 0 0 2212.13 0 0 0 2212.13)
(2286.42 0 0 0 2286.42 0 0 0 2286.42)
(2359.35 0 0 0 2359.35 0 0 0 2359.35)
(2431.02 0 0 0 2431.02 0 0 0 2431.02)
(2501.54 0 0 0 2501.54 0 0 0 2501.54)
(2570.98 0 0 0 2570.98 0 0 0 2570.98)
(2639.42 0 0 0 2639.42 0 0 0 2639.42)
(2706.92 0 0 0 2706.92 0 0 0 2706.92)
(2773.55 0 0 0 2773.55 0 0 0 2773.55)
(2839.39 0 0 0 2839.39 0 0 0 2839.39)
(2904.53 0 0 0 2904.53 0 0 0 2904.53)
(2969.05 0 0 0 2969.05 0 0 0 2969.05)
(3032.99 0 0 0 3032.99 0 0 0 3032.99)
(3096.39 0 0 0 3096.39 0 0 0 3096.39)
(3159.27 0 0 0 3159.27 0 0 0 3159.27)
(3221.67 0 0 0 3221.67 0 0 0 3221.67)
(3283.6 0 0 0 3283.6 0 0 0 3283.6)
(3345.1 0 0 0 3345.1 0 0 0 3345.1)
(3406.18 0 0 0 3406.18 0 0 0 3406.18)
(3466.86 0 0 0 3466.86 0 0 0 3466.86)
(3527.18 0 0 0 3527.18 0 0 0 3527.18)
(3587.06 0 0 0 3587.06 0 0 0 3587.06)
(3647.38 0 0 0 3647.38 0 0 0 3647.38)
(3754.04 0 0 0 3754.04 0 0 0 3754.04)
(3866 0 0 0 3866 0 0 0 3866)
(3977.87 0 0 0 3977.87 0 0 0 3977.87)
(4090.18 0 0 0 4090.18 0 0 0 4090.18)
(4203.08 0 0 0 4203.08 0 0 0 4203.08)
(4316.74 0 0 0 4316.74 0 0 0 4316.74)
(4431.21 0 0 0 4431.21 0 0 0 4431.21)
(4546.56 0 0 0 4546.56 0 0 0 4546.56)
(4662.83 0 0 0 4662.83 0 0 0 4662.83)
(4780.06 0 0 0 4780.06 0 0 0 4780.06)
(4898.11 0 0 0 4898.11 0 0 0 4898.11)
(5017.93 0 0 0 5017.93 0 0 0 5017.93)
(5134.7 0 0 0 5134.7 0 0 0 5134.7)
(5272.82 0 0 0 5272.82 0 0 0 5272.82)
)
;

boundaryField
{
    inlet
    {
        type            zeroGradient;
    }
    outlet
    {
        type            zeroGradient;
    }
    fixedWalls
    {
        type            zeroGradient;
    }
}


// ************************************************************************* //
