/*--------------------------------*- C++ -*----------------------------------*\
| =========                 |                                                 |
| \\      /  F ield         | OpenFOAM: The Open Source CFD Toolbox           |
|  \\    /   O peration     | Version:  2406                                  |
|   \\  /    A nd           | Website:  www.openfoam.com                      |
|    \\/     M anipulation  |                                                 |
\*---------------------------------------------------------------------------*/
FoamFile
{
    version     2.0;
    format      ascii;
    arch        "LSB;label=32;scalar=64";
    class       volTensorField;
    location    "30/fluidRegion";
    object      KdTotU;
}
// * * * * * * * * * * * * * * * * * * * * * * * * * * * * * * * * * * * * * //

dimensions      [1 -2 -2 0 0 0 0];

internalField   nonuniform List<tensor> 
75
(
(539.508 0 0 0 539.508 0 0 0 539.508)
(539.508 0 0 0 539.508 0 0 0 539.508)
(539.508 0 0 0 539.508 0 0 0 539.508)
(539.508 0 0 0 539.508 0 0 0 539.508)
(539.507 0 0 0 539.507 0 0 0 539.507)
(538.851 0 0 0 538.851 0 0 0 538.851)
(538.601 0 0 0 538.601 0 0 0 538.601)
(538.39 0 0 0 538.39 0 0 0 538.39)
(538.219 0 0 0 538.219 0 0 0 538.219)
(538.086 0 0 0 538.086 0 0 0 538.086)
(537.99 0 0 0 537.99 0 0 0 537.99)
(539.546 0 0 0 539.546 0 0 0 539.546)
(556.929 0 0 0 556.929 0 0 0 556.929)
(585.321 0 0 0 585.321 0 0 0 585.321)
(621.297 0 0 0 621.297 0 0 0 621.297)
(664.754 0 0 0 664.754 0 0 0 664.754)
(715.699 0 0 0 715.699 0 0 0 715.699)
(774.712 0 0 0 774.712 0 0 0 774.712)
(842.583 0 0 0 842.583 0 0 0 842.583)
(920.27 0 0 0 920.27 0 0 0 920.27)
(1008.82 0 0 0 1008.82 0 0 0 1008.82)
(1109.27 0 0 0 1109.27 0 0 0 1109.27)
(1222.62 0 0 0 1222.62 0 0 0 1222.62)
(1349.67 0 0 0 1349.67 0 0 0 1349.67)
(1490.94 0 0 0 1490.94 0 0 0 1490.94)
(1646.57 0 0 0 1646.57 0 0 0 1646.57)
(1816.52 0 0 0 1816.52 0 0 0 1816.52)
(2006.48 0 0 0 2006.48 0 0 0 2006.48)
(2209.26 0 0 0 2209.26 0 0 0 2209.26)
(2417 0 0 0 2417 0 0 0 2417)
(2626.75 0 0 0 2626.75 0 0 0 2626.75)
(2836.21 0 0 0 2836.21 0 0 0 2836.21)
(3044.46 0 0 0 3044.46 0 0 0 3044.46)
(3251.52 0 0 0 3251.52 0 0 0 3251.52)
(3457.44 0 0 0 3457.44 0 0 0 3457.44)
(3662.27 0 0 0 3662.27 0 0 0 3662.27)
(3866.06 0 0 0 3866.06 0 0 0 3866.06)
(4068.85 0 0 0 4068.85 0 0 0 4068.85)
(4270.68 0 0 0 4270.68 0 0 0 4270.68)
(4471.59 0 0 0 4471.59 0 0 0 4471.59)
(4671.6 0 0 0 4671.6 0 0 0 4671.6)
(4870.74 0 0 0 4870.74 0 0 0 4870.74)
(5069.01 0 0 0 5069.01 0 0 0 5069.01)
(5266.44 0 0 0 5266.44 0 0 0 5266.44)
(5463.04 0 0 0 5463.04 0 0 0 5463.04)
(5658.82 0 0 0 5658.82 0 0 0 5658.82)
(5853.79 0 0 0 5853.79 0 0 0 5853.79)
(6048.01 0 0 0 6048.01 0 0 0 6048.01)
(6241.66 0 0 0 6241.66 0 0 0 6241.66)
(6434.83 0 0 0 6434.83 0 0 0 6434.83)
(6627.51 0 0 0 6627.51 0 0 0 6627.51)
(6819.69 0 0 0 6819.69 0 0 0 6819.69)
(7011.36 0 0 0 7011.36 0 0 0 7011.36)
(7202.5 0 0 0 7202.5 0 0 0 7202.5)
(7393.1 0 0 0 7393.1 0 0 0 7393.1)
(7583.15 0 0 0 7583.15 0 0 0 7583.15)
(7772.62 0 0 0 7772.62 0 0 0 7772.62)
(7961.51 0 0 0 7961.51 0 0 0 7961.51)
(8149.79 0 0 0 8149.79 0 0 0 8149.79)
(8337.46 0 0 0 8337.46 0 0 0 8337.46)
(8524.42 0 0 0 8524.42 0 0 0 8524.42)
(8814.27 0 0 0 8814.27 0 0 0 8814.27)
(9111.7 0 0 0 9111.7 0 0 0 9111.7)
(9406.56 0 0 0 9406.56 0 0 0 9406.56)
(9701.02 0 0 0 9701.02 0 0 0 9701.02)
(9996.09 0 0 0 9996.09 0 0 0 9996.09)
(10292.3 0 0 0 10292.3 0 0 0 10292.3)
(10590.1 0 0 0 10590.1 0 0 0 10590.1)
(10889.5 0 0 0 10889.5 0 0 0 10889.5)
(11190.6 0 0 0 11190.6 0 0 0 11190.6)
(11493.6 0 0 0 11493.6 0 0 0 11493.6)
(11797.9 0 0 0 11797.9 0 0 0 11797.9)
(12106.4 0 0 0 12106.4 0 0 0 12106.4)
(12404.2 0 0 0 12404.2 0 0 0 12404.2)
(12766 0 0 0 12766 0 0 0 12766)
)
;

boundaryField
{
    inlet
    {
        type            zeroGradient;
    }
    outlet
    {
        type            zeroGradient;
    }
    fixedWalls
    {
        type            zeroGradient;
    }
}


// ************************************************************************* //
