/*--------------------------------*- C++ -*----------------------------------*\
| =========                 |                                                 |
| \\      /  F ield         | OpenFOAM: The Open Source CFD Toolbox           |
|  \\    /   O peration     | Version:  2406                                  |
|   \\  /    A nd           | Website:  www.openfoam.com                      |
|    \\/     M anipulation  |                                                 |
\*---------------------------------------------------------------------------*/
FoamFile
{
    version     2.0;
    format      ascii;
    arch        "LSB;label=32;scalar=64";
    class       volScalarField;
    location    "30/fluidRegion";
    object      p_rgh;
}
// * * * * * * * * * * * * * * * * * * * * * * * * * * * * * * * * * * * * * //

dimensions      [1 -1 -2 0 0 0 0];

internalField   nonuniform List<scalar> 
75
(
7.21789e+06
7.21787e+06
7.21785e+06
7.21783e+06
7.21781e+06
7.21778e+06
7.21776e+06
7.21773e+06
7.21771e+06
7.21768e+06
7.21766e+06
7.21763e+06
7.21761e+06
7.21758e+06
7.21755e+06
7.21751e+06
7.21747e+06
7.21742e+06
7.21737e+06
7.21732e+06
7.21726e+06
7.21719e+06
7.21712e+06
7.21704e+06
7.21695e+06
7.21685e+06
7.21674e+06
7.21662e+06
7.21649e+06
7.21634e+06
7.21619e+06
7.21603e+06
7.21586e+06
7.21568e+06
7.21549e+06
7.2153e+06
7.21509e+06
7.21488e+06
7.21465e+06
7.21442e+06
7.21418e+06
7.21393e+06
7.21367e+06
7.21341e+06
7.21313e+06
7.21285e+06
7.21255e+06
7.21225e+06
7.21194e+06
7.21162e+06
7.21129e+06
7.21095e+06
7.21061e+06
7.21025e+06
7.20989e+06
7.20951e+06
7.20913e+06
7.20874e+06
7.20834e+06
7.20793e+06
7.20752e+06
7.20709e+06
7.20665e+06
7.2062e+06
7.20573e+06
7.20525e+06
7.20476e+06
7.20425e+06
7.20373e+06
7.2032e+06
7.20265e+06
7.20209e+06
7.20151e+06
7.20092e+06
7.20032e+06
)
;

boundaryField
{
    inlet
    {
        type            fixedFluxPressure;
        gradient        uniform 1068.17;
        value           uniform 7.2179e+06;
    }
    outlet
    {
        type            fixedValue;
        value           uniform 7.2e+06;
    }
    fixedWalls
    {
        type            fixedFluxPressure;
        gradient        nonuniform List<scalar> 
300
(
0
0
-8.17509e-17
-8.17509e-17
7.74693e-17
1.1026e-16
-5.49516e-20
-3.28061e-17
0
0
0
0
0
0
0
0
0
0
0
0
0
0
0
0
0
0
0
0
0
0
0
0
0
0
0
0
0
0
0
0
0
0
0
0
0
0
0
0
0
2.5207e-16
-1.49257e-17
-2.53145e-16
0
0
0
0
5.04134e-16
-1.38114e-17
-4.94779e-16
0
0
0
0
0
5.03221e-16
-1.30442e-17
-4.9802e-16
0
0
0
0
5.09399e-16
-1.26233e-17
-5.05385e-16
0
0
0
8.17509e-17
8.17509e-17
-7.74693e-17
-1.1026e-16
5.49516e-20
3.28061e-17
0
0
0
0
0
0
0
0
0
0
0
0
0
0
0
0
0
0
0
0
0
0
0
0
0
0
0
0
0
0
0
0
0
0
0
0
0
0
0
0
0
-2.5207e-16
1.49257e-17
2.53145e-16
0
0
0
0
-5.04134e-16
1.38114e-17
4.94779e-16
0
0
0
0
0
-5.03221e-16
1.30442e-17
4.9802e-16
0
0
0
0
-5.09399e-16
1.26233e-17
5.05385e-16
0
0
0
-8.17509e-17
-8.17509e-17
7.74693e-17
1.1026e-16
-5.49516e-20
-3.28061e-17
0
0
0
0
0
0
0
0
0
0
0
0
0
0
0
0
0
0
0
0
0
0
0
0
0
0
0
0
0
0
0
0
0
0
0
0
0
0
0
0
0
2.5207e-16
-1.49257e-17
-2.53145e-16
0
0
0
0
5.04134e-16
-1.38114e-17
-4.94779e-16
0
0
0
0
0
5.03221e-16
-1.30442e-17
-4.9802e-16
0
0
0
0
5.09399e-16
-1.26233e-17
-5.05385e-16
0
0
0
8.17509e-17
8.17509e-17
-7.74693e-17
-1.1026e-16
5.49516e-20
3.28061e-17
0
0
0
0
0
0
0
0
0
0
0
0
0
0
0
0
0
0
0
0
0
0
0
0
0
0
0
0
0
0
0
0
0
0
0
0
0
0
0
0
0
-2.5207e-16
1.49257e-17
2.53145e-16
0
0
0
0
-5.04134e-16
1.38114e-17
4.94779e-16
0
0
0
0
0
-5.03221e-16
1.30442e-17
4.9802e-16
0
0
0
0
-5.09399e-16
1.26233e-17
5.05385e-16
0
)
;
        value           nonuniform List<scalar> 
300
(
7.21789e+06
7.21787e+06
7.21785e+06
7.21783e+06
7.21781e+06
7.21778e+06
7.21776e+06
7.21773e+06
7.21771e+06
7.21768e+06
7.21766e+06
7.21763e+06
7.21761e+06
7.21758e+06
7.21755e+06
7.21751e+06
7.21747e+06
7.21742e+06
7.21737e+06
7.21732e+06
7.21726e+06
7.21719e+06
7.21712e+06
7.21704e+06
7.21695e+06
7.21685e+06
7.21674e+06
7.21662e+06
7.21649e+06
7.21634e+06
7.21619e+06
7.21603e+06
7.21586e+06
7.21568e+06
7.21549e+06
7.2153e+06
7.21509e+06
7.21488e+06
7.21465e+06
7.21442e+06
7.21418e+06
7.21393e+06
7.21367e+06
7.21341e+06
7.21313e+06
7.21285e+06
7.21255e+06
7.21225e+06
7.21194e+06
7.21162e+06
7.21129e+06
7.21095e+06
7.21061e+06
7.21025e+06
7.20989e+06
7.20951e+06
7.20913e+06
7.20874e+06
7.20834e+06
7.20793e+06
7.20752e+06
7.20709e+06
7.20665e+06
7.2062e+06
7.20573e+06
7.20525e+06
7.20476e+06
7.20425e+06
7.20373e+06
7.2032e+06
7.20265e+06
7.20209e+06
7.20151e+06
7.20092e+06
7.20032e+06
7.21789e+06
7.21787e+06
7.21785e+06
7.21783e+06
7.21781e+06
7.21778e+06
7.21776e+06
7.21773e+06
7.21771e+06
7.21768e+06
7.21766e+06
7.21763e+06
7.21761e+06
7.21758e+06
7.21755e+06
7.21751e+06
7.21747e+06
7.21742e+06
7.21737e+06
7.21732e+06
7.21726e+06
7.21719e+06
7.21712e+06
7.21704e+06
7.21695e+06
7.21685e+06
7.21674e+06
7.21662e+06
7.21649e+06
7.21634e+06
7.21619e+06
7.21603e+06
7.21586e+06
7.21568e+06
7.21549e+06
7.2153e+06
7.21509e+06
7.21488e+06
7.21465e+06
7.21442e+06
7.21418e+06
7.21393e+06
7.21367e+06
7.21341e+06
7.21313e+06
7.21285e+06
7.21255e+06
7.21225e+06
7.21194e+06
7.21162e+06
7.21129e+06
7.21095e+06
7.21061e+06
7.21025e+06
7.20989e+06
7.20951e+06
7.20913e+06
7.20874e+06
7.20834e+06
7.20793e+06
7.20752e+06
7.20709e+06
7.20665e+06
7.2062e+06
7.20573e+06
7.20525e+06
7.20476e+06
7.20425e+06
7.20373e+06
7.2032e+06
7.20265e+06
7.20209e+06
7.20151e+06
7.20092e+06
7.20032e+06
7.21789e+06
7.21787e+06
7.21785e+06
7.21783e+06
7.21781e+06
7.21778e+06
7.21776e+06
7.21773e+06
7.21771e+06
7.21768e+06
7.21766e+06
7.21763e+06
7.21761e+06
7.21758e+06
7.21755e+06
7.21751e+06
7.21747e+06
7.21742e+06
7.21737e+06
7.21732e+06
7.21726e+06
7.21719e+06
7.21712e+06
7.21704e+06
7.21695e+06
7.21685e+06
7.21674e+06
7.21662e+06
7.21649e+06
7.21634e+06
7.21619e+06
7.21603e+06
7.21586e+06
7.21568e+06
7.21549e+06
7.2153e+06
7.21509e+06
7.21488e+06
7.21465e+06
7.21442e+06
7.21418e+06
7.21393e+06
7.21367e+06
7.21341e+06
7.21313e+06
7.21285e+06
7.21255e+06
7.21225e+06
7.21194e+06
7.21162e+06
7.21129e+06
7.21095e+06
7.21061e+06
7.21025e+06
7.20989e+06
7.20951e+06
7.20913e+06
7.20874e+06
7.20834e+06
7.20793e+06
7.20752e+06
7.20709e+06
7.20665e+06
7.2062e+06
7.20573e+06
7.20525e+06
7.20476e+06
7.20425e+06
7.20373e+06
7.2032e+06
7.20265e+06
7.20209e+06
7.20151e+06
7.20092e+06
7.20032e+06
7.21789e+06
7.21787e+06
7.21785e+06
7.21783e+06
7.21781e+06
7.21778e+06
7.21776e+06
7.21773e+06
7.21771e+06
7.21768e+06
7.21766e+06
7.21763e+06
7.21761e+06
7.21758e+06
7.21755e+06
7.21751e+06
7.21747e+06
7.21742e+06
7.21737e+06
7.21732e+06
7.21726e+06
7.21719e+06
7.21712e+06
7.21704e+06
7.21695e+06
7.21685e+06
7.21674e+06
7.21662e+06
7.21649e+06
7.21634e+06
7.21619e+06
7.21603e+06
7.21586e+06
7.21568e+06
7.21549e+06
7.2153e+06
7.21509e+06
7.21488e+06
7.21465e+06
7.21442e+06
7.21418e+06
7.21393e+06
7.21367e+06
7.21341e+06
7.21313e+06
7.21285e+06
7.21255e+06
7.21225e+06
7.21194e+06
7.21162e+06
7.21129e+06
7.21095e+06
7.21061e+06
7.21025e+06
7.20989e+06
7.20951e+06
7.20913e+06
7.20874e+06
7.20834e+06
7.20793e+06
7.20752e+06
7.20709e+06
7.20665e+06
7.2062e+06
7.20573e+06
7.20525e+06
7.20476e+06
7.20425e+06
7.20373e+06
7.2032e+06
7.20265e+06
7.20209e+06
7.20151e+06
7.20092e+06
7.20032e+06
)
;
    }
}


// ************************************************************************* //
