/*--------------------------------*- C++ -*----------------------------------*\
| =========                 |                                                 |
| \\      /  F ield         | OpenFOAM: The Open Source CFD Toolbox           |
|  \\    /   O peration     | Version:  2406                                  |
|   \\  /    A nd           | Website:  www.openfoam.com                      |
|    \\/     M anipulation  |                                                 |
\*---------------------------------------------------------------------------*/
FoamFile
{
    version     2.0;
    format      ascii;
    arch        "LSB;label=32;scalar=64";
    class       volTensorField;
    location    "30/fluidRegion";
    object      Kd.liquid.structure;
}
// * * * * * * * * * * * * * * * * * * * * * * * * * * * * * * * * * * * * * //

dimensions      [1 -3 -1 0 0 0 0];

internalField   nonuniform List<tensor> 
75
(
(432.34 0 0 0 432.34 0 0 0 432.34)
(426.54 0 0 0 426.54 0 0 0 426.54)
(423.211 0 0 0 423.211 0 0 0 423.211)
(421.083 0 0 0 421.083 0 0 0 421.083)
(419.744 0 0 0 419.744 0 0 0 419.744)
(418.436 0 0 0 418.436 0 0 0 418.436)
(417.572 0 0 0 417.572 0 0 0 417.572)
(416.912 0 0 0 416.912 0 0 0 416.912)
(416.548 0 0 0 416.548 0 0 0 416.548)
(415.365 0 0 0 415.365 0 0 0 415.365)
(415.015 0 0 0 415.015 0 0 0 415.015)
(414.667 0 0 0 414.667 0 0 0 414.667)
(414.321 0 0 0 414.321 0 0 0 414.321)
(413.977 0 0 0 413.977 0 0 0 413.977)
(413.636 0 0 0 413.636 0 0 0 413.636)
(413.298 0 0 0 413.298 0 0 0 413.298)
(412.963 0 0 0 412.963 0 0 0 412.963)
(412.63 0 0 0 412.63 0 0 0 412.63)
(412.299 0 0 0 412.299 0 0 0 412.299)
(411.972 0 0 0 411.972 0 0 0 411.972)
(411.635 0 0 0 411.635 0 0 0 411.635)
(420.698 0 0 0 420.698 0 0 0 420.698)
(435.541 0 0 0 435.541 0 0 0 435.541)
(454.716 0 0 0 454.716 0 0 0 454.716)
(477.856 0 0 0 477.856 0 0 0 477.856)
(504.706 0 0 0 504.706 0 0 0 504.706)
(535.222 0 0 0 535.222 0 0 0 535.222)
(569.435 0 0 0 569.435 0 0 0 569.435)
(607.421 0 0 0 607.421 0 0 0 607.421)
(649.262 0 0 0 649.262 0 0 0 649.262)
(695.018 0 0 0 695.018 0 0 0 695.018)
(744.698 0 0 0 744.698 0 0 0 744.698)
(798.244 0 0 0 798.244 0 0 0 798.244)
(855.511 0 0 0 855.511 0 0 0 855.511)
(916.262 0 0 0 916.262 0 0 0 916.262)
(980.163 0 0 0 980.163 0 0 0 980.163)
(1046.79 0 0 0 1046.79 0 0 0 1046.79)
(1115.67 0 0 0 1115.67 0 0 0 1115.67)
(1186.3 0 0 0 1186.3 0 0 0 1186.3)
(1256.82 0 0 0 1256.82 0 0 0 1256.82)
(1325.82 0 0 0 1325.82 0 0 0 1325.82)
(1392.99 0 0 0 1392.99 0 0 0 1392.99)
(1458.4 0 0 0 1458.4 0 0 0 1458.4)
(1522.17 0 0 0 1522.17 0 0 0 1522.17)
(1584.44 0 0 0 1584.44 0 0 0 1584.44)
(1645.34 0 0 0 1645.34 0 0 0 1645.34)
(1704.96 0 0 0 1704.96 0 0 0 1704.96)
(1763.42 0 0 0 1763.42 0 0 0 1763.42)
(1820.79 0 0 0 1820.79 0 0 0 1820.79)
(1877.16 0 0 0 1877.16 0 0 0 1877.16)
(1932.59 0 0 0 1932.59 0 0 0 1932.59)
(1987.14 0 0 0 1987.14 0 0 0 1987.14)
(2040.87 0 0 0 2040.87 0 0 0 2040.87)
(2093.84 0 0 0 2093.84 0 0 0 2093.84)
(2146.07 0 0 0 2146.07 0 0 0 2146.07)
(2197.63 0 0 0 2197.63 0 0 0 2197.63)
(2248.54 0 0 0 2248.54 0 0 0 2248.54)
(2298.83 0 0 0 2298.83 0 0 0 2298.83)
(2348.55 0 0 0 2348.55 0 0 0 2348.55)
(2397.71 0 0 0 2397.71 0 0 0 2397.71)
(2446.35 0 0 0 2446.35 0 0 0 2446.35)
(2494.5 0 0 0 2494.5 0 0 0 2494.5)
(2542.16 0 0 0 2542.16 0 0 0 2542.16)
(2589.37 0 0 0 2589.37 0 0 0 2589.37)
(2636.14 0 0 0 2636.14 0 0 0 2636.14)
(2682.49 0 0 0 2682.49 0 0 0 2682.49)
(2728.44 0 0 0 2728.44 0 0 0 2728.44)
(2774.01 0 0 0 2774.01 0 0 0 2774.01)
(2819.21 0 0 0 2819.21 0 0 0 2819.21)
(2864.09 0 0 0 2864.09 0 0 0 2864.09)
(2908.7 0 0 0 2908.7 0 0 0 2908.7)
(2953.07 0 0 0 2953.07 0 0 0 2953.07)
(2997.2 0 0 0 2997.2 0 0 0 2997.2)
(3041.13 0 0 0 3041.13 0 0 0 3041.13)
(3084.58 0 0 0 3084.58 0 0 0 3084.58)
)
;

boundaryField
{
    inlet
    {
        type            zeroGradient;
    }
    outlet
    {
        type            zeroGradient;
    }
    fixedWalls
    {
        type            zeroGradient;
    }
}


// ************************************************************************* //
