/*--------------------------------*- C++ -*----------------------------------*\
| =========                 |                                                 |
| \\      /  F ield         | OpenFOAM: The Open Source CFD Toolbox           |
|  \\    /   O peration     | Version:  2406                                  |
|   \\  /    A nd           | Website:  www.openfoam.com                      |
|    \\/     M anipulation  |                                                 |
\*---------------------------------------------------------------------------*/
FoamFile
{
    version     2.0;
    format      ascii;
    arch        "LSB;label=32;scalar=64";
    class       volTensorField;
    location    "30/fluidRegion";
    object      KdTotU;
}
// * * * * * * * * * * * * * * * * * * * * * * * * * * * * * * * * * * * * * //

dimensions      [1 -2 -2 0 0 0 0];

internalField   nonuniform List<tensor> 
75
(
(556.974 0 0 0 556.974 0 0 0 556.974)
(548.88 0 0 0 548.88 0 0 0 548.88)
(544.185 0 0 0 544.185 0 0 0 544.185)
(541.216 0 0 0 541.216 0 0 0 541.216)
(539.362 0 0 0 539.362 0 0 0 539.362)
(537.748 0 0 0 537.748 0 0 0 537.748)
(536.889 0 0 0 536.889 0 0 0 536.889)
(536.326 0 0 0 536.326 0 0 0 536.326)
(536.168 0 0 0 536.168 0 0 0 536.168)
(534.975 0 0 0 534.975 0 0 0 534.975)
(534.871 0 0 0 534.871 0 0 0 534.871)
(534.784 0 0 0 534.784 0 0 0 534.784)
(534.715 0 0 0 534.715 0 0 0 534.715)
(534.663 0 0 0 534.663 0 0 0 534.663)
(534.628 0 0 0 534.628 0 0 0 534.628)
(534.609 0 0 0 534.609 0 0 0 534.609)
(534.606 0 0 0 534.606 0 0 0 534.606)
(534.62 0 0 0 534.62 0 0 0 534.62)
(534.649 0 0 0 534.649 0 0 0 534.649)
(534.694 0 0 0 534.694 0 0 0 534.694)
(534.745 0 0 0 534.745 0 0 0 534.745)
(547.595 0 0 0 547.595 0 0 0 547.595)
(568.969 0 0 0 568.969 0 0 0 568.969)
(596.854 0 0 0 596.854 0 0 0 596.854)
(630.867 0 0 0 630.867 0 0 0 630.867)
(670.826 0 0 0 670.826 0 0 0 670.826)
(716.868 0 0 0 716.868 0 0 0 716.868)
(769.277 0 0 0 769.277 0 0 0 769.277)
(828.437 0 0 0 828.437 0 0 0 828.437)
(894.783 0 0 0 894.783 0 0 0 894.783)
(968.751 0 0 0 968.751 0 0 0 968.751)
(1050.74 0 0 0 1050.74 0 0 0 1050.74)
(1141.08 0 0 0 1141.08 0 0 0 1141.08)
(1239.95 0 0 0 1239.95 0 0 0 1239.95)
(1347.41 0 0 0 1347.41 0 0 0 1347.41)
(1463.3 0 0 0 1463.3 0 0 0 1463.3)
(1587.29 0 0 0 1587.29 0 0 0 1587.29)
(1718.84 0 0 0 1718.84 0 0 0 1718.84)
(1857.29 0 0 0 1857.29 0 0 0 1857.29)
(1999.35 0 0 0 1999.35 0 0 0 1999.35)
(2142.08 0 0 0 2142.08 0 0 0 2142.08)
(2284.51 0 0 0 2284.51 0 0 0 2284.51)
(2426.42 0 0 0 2426.42 0 0 0 2426.42)
(2567.78 0 0 0 2567.78 0 0 0 2567.78)
(2708.6 0 0 0 2708.6 0 0 0 2708.6)
(2848.9 0 0 0 2848.9 0 0 0 2848.9)
(2988.7 0 0 0 2988.7 0 0 0 2988.7)
(3128.04 0 0 0 3128.04 0 0 0 3128.04)
(3266.94 0 0 0 3266.94 0 0 0 3266.94)
(3405.43 0 0 0 3405.43 0 0 0 3405.43)
(3543.51 0 0 0 3543.51 0 0 0 3543.51)
(3681.21 0 0 0 3681.21 0 0 0 3681.21)
(3818.54 0 0 0 3818.54 0 0 0 3818.54)
(3955.52 0 0 0 3955.52 0 0 0 3955.52)
(4092.14 0 0 0 4092.14 0 0 0 4092.14)
(4228.41 0 0 0 4228.41 0 0 0 4228.41)
(4364.35 0 0 0 4364.35 0 0 0 4364.35)
(4499.95 0 0 0 4499.95 0 0 0 4499.95)
(4635.22 0 0 0 4635.22 0 0 0 4635.22)
(4770.16 0 0 0 4770.16 0 0 0 4770.16)
(4904.77 0 0 0 4904.77 0 0 0 4904.77)
(5039.05 0 0 0 5039.05 0 0 0 5039.05)
(5173 0 0 0 5173 0 0 0 5173)
(5306.62 0 0 0 5306.62 0 0 0 5306.62)
(5439.91 0 0 0 5439.91 0 0 0 5439.91)
(5572.87 0 0 0 5572.87 0 0 0 5572.87)
(5705.5 0 0 0 5705.5 0 0 0 5705.5)
(5837.79 0 0 0 5837.79 0 0 0 5837.79)
(5969.75 0 0 0 5969.75 0 0 0 5969.75)
(6101.49 0 0 0 6101.49 0 0 0 6101.49)
(6233.13 0 0 0 6233.13 0 0 0 6233.13)
(6364.69 0 0 0 6364.69 0 0 0 6364.69)
(6496.16 0 0 0 6496.16 0 0 0 6496.16)
(6627.51 0 0 0 6627.51 0 0 0 6627.51)
(6758.98 0 0 0 6758.98 0 0 0 6758.98)
)
;

boundaryField
{
    inlet
    {
        type            zeroGradient;
    }
    outlet
    {
        type            zeroGradient;
    }
    fixedWalls
    {
        type            zeroGradient;
    }
}


// ************************************************************************* //
