/*--------------------------------*- C++ -*----------------------------------*\
| =========                 |                                                 |
| \\      /  F ield         | OpenFOAM: The Open Source CFD Toolbox           |
|  \\    /   O peration     | Version:  2406                                  |
|   \\  /    A nd           | Website:  www.openfoam.com                      |
|    \\/     M anipulation  |                                                 |
\*---------------------------------------------------------------------------*/
FoamFile
{
    version     2.0;
    format      ascii;
    arch        "LSB;label=32;scalar=64";
    class       volScalarField;
    location    "0.6/fluidRegion";
    object      alphaRhoMagU.vapour;
}
// * * * * * * * * * * * * * * * * * * * * * * * * * * * * * * * * * * * * * //

dimensions      [1 -2 -1 0 0 0 0];

internalField   nonuniform List<scalar> 
75
(
0
0
0
0
0
0
0
0
0
0
0
0.337688
1.06359
2.11451
3.45928
5.10307
7.03489
9.26161
11.7929
14.643
17.8283
21.3665
25.2754
29.5707
34.2922
40.122
46.7005
53.7391
61.1139
68.7693
76.6695
84.7889
93.1071
101.607
110.273
119.091
128.05
137.139
146.346
155.663
165.08
174.589
184.136
193.704
203.291
212.898
222.506
232.006
241.49
251.07
260.674
270.301
279.941
289.592
299.253
308.924
318.605
328.296
337.999
347.714
357.44
367.18
376.932
386.698
396.477
406.27
416.077
425.898
435.733
445.58
455.452
465.3
475.289
484.879
495.907
)
;

boundaryField
{
    inlet
    {
        type            calculated;
        value           uniform 0;
    }
    outlet
    {
        type            calculated;
        value           uniform 495.705;
    }
    fixedWalls
    {
        type            calculated;
        value           nonuniform List<scalar> 
300
(
0
0
0
0
0
0
0
0
0
0
0
0.337688
1.06359
2.11451
3.45928
5.10307
7.03489
9.26161
11.7929
14.643
17.8283
21.3665
25.2754
29.5707
34.2922
40.122
46.7005
53.7391
61.1139
68.7693
76.6695
84.7889
93.1071
101.607
110.273
119.091
128.05
137.139
146.346
155.663
165.08
174.589
184.136
193.704
203.291
212.898
222.506
232.006
241.49
251.07
260.674
270.301
279.941
289.592
299.253
308.924
318.605
328.296
337.999
347.714
357.44
367.18
376.932
386.698
396.477
406.27
416.077
425.898
435.733
445.58
455.452
465.3
475.289
484.879
495.907
0
0
0
0
0
0
0
0
0
0
0
0.337688
1.06359
2.11451
3.45928
5.10307
7.03489
9.26161
11.7929
14.643
17.8283
21.3665
25.2754
29.5707
34.2922
40.122
46.7005
53.7391
61.1139
68.7693
76.6695
84.7889
93.1071
101.607
110.273
119.091
128.05
137.139
146.346
155.663
165.08
174.589
184.136
193.704
203.291
212.898
222.506
232.006
241.49
251.07
260.674
270.301
279.941
289.592
299.253
308.924
318.605
328.296
337.999
347.714
357.44
367.18
376.932
386.698
396.477
406.27
416.077
425.898
435.733
445.58
455.452
465.3
475.289
484.879
495.907
0
0
0
0
0
0
0
0
0
0
0
0.337688
1.06359
2.11451
3.45928
5.10307
7.03489
9.26161
11.7929
14.643
17.8283
21.3665
25.2754
29.5707
34.2922
40.122
46.7005
53.7391
61.1139
68.7693
76.6695
84.7889
93.1071
101.607
110.273
119.091
128.05
137.139
146.346
155.663
165.08
174.589
184.136
193.704
203.291
212.898
222.506
232.006
241.49
251.07
260.674
270.301
279.941
289.592
299.253
308.924
318.605
328.296
337.999
347.714
357.44
367.18
376.932
386.698
396.477
406.27
416.077
425.898
435.733
445.58
455.452
465.3
475.289
484.879
495.907
0
0
0
0
0
0
0
0
0
0
0
0.337688
1.06359
2.11451
3.45928
5.10307
7.03489
9.26161
11.7929
14.643
17.8283
21.3665
25.2754
29.5707
34.2922
40.122
46.7005
53.7391
61.1139
68.7693
76.6695
84.7889
93.1071
101.607
110.273
119.091
128.05
137.139
146.346
155.663
165.08
174.589
184.136
193.704
203.291
212.898
222.506
232.006
241.49
251.07
260.674
270.301
279.941
289.592
299.253
308.924
318.605
328.296
337.999
347.714
357.44
367.18
376.932
386.698
396.477
406.27
416.077
425.898
435.733
445.58
455.452
465.3
475.289
484.879
495.907
)
;
    }
}


// ************************************************************************* //
