/*--------------------------------*- C++ -*----------------------------------*\
| =========                 |                                                 |
| \\      /  F ield         | OpenFOAM: The Open Source CFD Toolbox           |
|  \\    /   O peration     | Version:  2406                                  |
|   \\  /    A nd           | Website:  www.openfoam.com                      |
|    \\/     M anipulation  |                                                 |
\*---------------------------------------------------------------------------*/
FoamFile
{
    version     2.0;
    format      ascii;
    arch        "LSB;label=32;scalar=64";
    class       volTensorField;
    location    "0.6/fluidRegion";
    object      Kd.liquid.structure;
}
// * * * * * * * * * * * * * * * * * * * * * * * * * * * * * * * * * * * * * //

dimensions      [1 -3 -1 0 0 0 0];

internalField   nonuniform List<tensor> 
75
(
(1136.21 0 0 0 1136.21 0 0 0 1136.21)
(1136.21 0 0 0 1136.21 0 0 0 1136.21)
(1136.21 0 0 0 1136.21 0 0 0 1136.21)
(1136.21 0 0 0 1136.21 0 0 0 1136.21)
(1136.21 0 0 0 1136.21 0 0 0 1136.21)
(1132.11 0 0 0 1132.11 0 0 0 1132.11)
(1130.18 0 0 0 1130.18 0 0 0 1130.18)
(1128.23 0 0 0 1128.23 0 0 0 1128.23)
(1126.28 0 0 0 1126.28 0 0 0 1126.28)
(1124.31 0 0 0 1124.31 0 0 0 1124.31)
(1122.34 0 0 0 1122.34 0 0 0 1122.34)
(1166.68 0 0 0 1166.68 0 0 0 1166.68)
(1248 0 0 0 1248 0 0 0 1248)
(1354.68 0 0 0 1354.68 0 0 0 1354.68)
(1481.27 0 0 0 1481.27 0 0 0 1481.27)
(1626.23 0 0 0 1626.23 0 0 0 1626.23)
(1786.56 0 0 0 1786.56 0 0 0 1786.56)
(1961.03 0 0 0 1961.03 0 0 0 1961.03)
(2148.65 0 0 0 2148.65 0 0 0 2148.65)
(2348.74 0 0 0 2348.74 0 0 0 2348.74)
(2560.7 0 0 0 2560.7 0 0 0 2560.7)
(2783.98 0 0 0 2783.98 0 0 0 2783.98)
(3018 0 0 0 3018 0 0 0 3018)
(3262.03 0 0 0 3262.03 0 0 0 3262.03)
(3516.01 0 0 0 3516.01 0 0 0 3516.01)
(3812.59 0 0 0 3812.59 0 0 0 3812.59)
(4130.91 0 0 0 4130.91 0 0 0 4130.91)
(4452.61 0 0 0 4452.61 0 0 0 4452.61)
(4771.05 0 0 0 4771.05 0 0 0 4771.05)
(5084.11 0 0 0 5084.11 0 0 0 5084.11)
(5390.94 0 0 0 5390.94 0 0 0 5390.94)
(5691.29 0 0 0 5691.29 0 0 0 5691.29)
(5985.18 0 0 0 5985.18 0 0 0 5985.18)
(6272.78 0 0 0 6272.78 0 0 0 6272.78)
(6554.29 0 0 0 6554.29 0 0 0 6554.29)
(6830 0 0 0 6830 0 0 0 6830)
(7100.17 0 0 0 7100.17 0 0 0 7100.17)
(7365.1 0 0 0 7365.1 0 0 0 7365.1)
(7625.06 0 0 0 7625.06 0 0 0 7625.06)
(7880.32 0 0 0 7880.32 0 0 0 7880.32)
(8131.15 0 0 0 8131.15 0 0 0 8131.15)
(8377.82 0 0 0 8377.82 0 0 0 8377.82)
(8619.66 0 0 0 8619.66 0 0 0 8619.66)
(8856.41 0 0 0 8856.41 0 0 0 8856.41)
(9088.43 0 0 0 9088.43 0 0 0 9088.43)
(9316.04 0 0 0 9316.04 0 0 0 9316.04)
(9540.29 0 0 0 9540.29 0 0 0 9540.29)
(9817.87 0 0 0 9817.87 0 0 0 9817.87)
(10288 0 0 0 10288 0 0 0 10288)
(10766.5 0 0 0 10766.5 0 0 0 10766.5)
(11251.3 0 0 0 11251.3 0 0 0 11251.3)
(11743.7 0 0 0 11743.7 0 0 0 11743.7)
(12243.8 0 0 0 12243.8 0 0 0 12243.8)
(12751.8 0 0 0 12751.8 0 0 0 12751.8)
(13268.1 0 0 0 13268.1 0 0 0 13268.1)
(13792.9 0 0 0 13792.9 0 0 0 13792.9)
(14326.4 0 0 0 14326.4 0 0 0 14326.4)
(14868.7 0 0 0 14868.7 0 0 0 14868.7)
(15420.2 0 0 0 15420.2 0 0 0 15420.2)
(15980.9 0 0 0 15980.9 0 0 0 15980.9)
(16551.2 0 0 0 16551.2 0 0 0 16551.2)
(17131.3 0 0 0 17131.3 0 0 0 17131.3)
(17721.4 0 0 0 17721.4 0 0 0 17721.4)
(18321.7 0 0 0 18321.7 0 0 0 18321.7)
(18932.5 0 0 0 18932.5 0 0 0 18932.5)
(19554.1 0 0 0 19554.1 0 0 0 19554.1)
(20186.8 0 0 0 20186.8 0 0 0 20186.8)
(20830.7 0 0 0 20830.7 0 0 0 20830.7)
(21486.5 0 0 0 21486.5 0 0 0 21486.5)
(22153.6 0 0 0 22153.6 0 0 0 22153.6)
(22835 0 0 0 22835 0 0 0 22835)
(23521.9 0 0 0 23521.9 0 0 0 23521.9)
(24246.3 0 0 0 24246.3 0 0 0 24246.3)
(24902.6 0 0 0 24902.6 0 0 0 24902.6)
(25845.8 0 0 0 25845.8 0 0 0 25845.8)
)
;

boundaryField
{
    inlet
    {
        type            zeroGradient;
    }
    outlet
    {
        type            zeroGradient;
    }
    fixedWalls
    {
        type            zeroGradient;
    }
}


// ************************************************************************* //
