/*--------------------------------*- C++ -*----------------------------------*\
| =========                 |                                                 |
| \\      /  F ield         | OpenFOAM: The Open Source CFD Toolbox           |
|  \\    /   O peration     | Version:  2406                                  |
|   \\  /    A nd           | Website:  www.openfoam.com                      |
|    \\/     M anipulation  |                                                 |
\*---------------------------------------------------------------------------*/
FoamFile
{
    version     2.0;
    format      ascii;
    arch        "LSB;label=32;scalar=64";
    class       volScalarField;
    location    "0.6/fluidRegion";
    object      alphaRhoMagU.vapour;
}
// * * * * * * * * * * * * * * * * * * * * * * * * * * * * * * * * * * * * * //

dimensions      [1 -2 -1 0 0 0 0];

internalField   nonuniform List<scalar> 
70
(
0
0
0
0
0
0
0
0
0.244481
0.862884
1.80272
3.02896
4.54507
6.33626
8.40539
10.7576
13.4024
16.3514
19.6174
23.2133
27.1511
31.4506
36.3768
42.0983
48.3372
54.9198
61.7704
68.8491
76.1286
83.5884
91.2119
98.9849
106.895
114.93
123.081
131.338
139.693
148.138
156.648
165.184
173.737
182.305
190.89
199.493
208.112
216.754
225.365
233.892
242.437
251.049
259.682
268.333
276.995
285.667
294.348
303.038
311.737
320.444
329.162
337.89
346.628
355.377
364.138
372.91
381.692
390.491
399.282
408.161
416.774
426.475
)
;

boundaryField
{
    inlet
    {
        type            calculated;
        value           uniform 0;
    }
    outlet
    {
        type            calculated;
        value           uniform 426.33;
    }
    fixedWalls
    {
        type            calculated;
        value           nonuniform List<scalar> 
280
(
0
0
0
0
0
0
0
0
0.244481
0.862884
1.80272
3.02896
4.54507
6.33626
8.40539
10.7576
13.4024
16.3514
19.6174
23.2133
27.1511
31.4506
36.3768
42.0983
48.3372
54.9198
61.7704
68.8491
76.1286
83.5884
91.2119
98.9849
106.895
114.93
123.081
131.338
139.693
148.138
156.648
165.184
173.737
182.305
190.89
199.493
208.112
216.754
225.365
233.892
242.437
251.049
259.682
268.333
276.995
285.667
294.348
303.038
311.737
320.444
329.162
337.89
346.628
355.377
364.138
372.91
381.692
390.491
399.282
408.161
416.774
426.475
0
0
0
0
0
0
0
0
0.244481
0.862884
1.80272
3.02896
4.54507
6.33626
8.40539
10.7576
13.4024
16.3514
19.6174
23.2133
27.1511
31.4506
36.3768
42.0983
48.3372
54.9198
61.7704
68.8491
76.1286
83.5884
91.2119
98.9849
106.895
114.93
123.081
131.338
139.693
148.138
156.648
165.184
173.737
182.305
190.89
199.493
208.112
216.754
225.365
233.892
242.437
251.049
259.682
268.333
276.995
285.667
294.348
303.038
311.737
320.444
329.162
337.89
346.628
355.377
364.138
372.91
381.692
390.491
399.282
408.161
416.774
426.475
0
0
0
0
0
0
0
0
0.244481
0.862884
1.80272
3.02896
4.54507
6.33626
8.40539
10.7576
13.4024
16.3514
19.6174
23.2133
27.1511
31.4506
36.3768
42.0983
48.3372
54.9198
61.7704
68.8491
76.1286
83.5884
91.2119
98.9849
106.895
114.93
123.081
131.338
139.693
148.138
156.648
165.184
173.737
182.305
190.89
199.493
208.112
216.754
225.365
233.892
242.437
251.049
259.682
268.333
276.995
285.667
294.348
303.038
311.737
320.444
329.162
337.89
346.628
355.377
364.138
372.91
381.692
390.491
399.282
408.161
416.774
426.475
0
0
0
0
0
0
0
0
0.244481
0.862884
1.80272
3.02896
4.54507
6.33626
8.40539
10.7576
13.4024
16.3514
19.6174
23.2133
27.1511
31.4506
36.3768
42.0983
48.3372
54.9198
61.7704
68.8491
76.1286
83.5884
91.2119
98.9849
106.895
114.93
123.081
131.338
139.693
148.138
156.648
165.184
173.737
182.305
190.89
199.493
208.112
216.754
225.365
233.892
242.437
251.049
259.682
268.333
276.995
285.667
294.348
303.038
311.737
320.444
329.162
337.89
346.628
355.377
364.138
372.91
381.692
390.491
399.282
408.161
416.774
426.475
)
;
    }
}


// ************************************************************************* //
