/*--------------------------------*- C++ -*----------------------------------*\
| =========                 |                                                 |
| \\      /  F ield         | OpenFOAM: The Open Source CFD Toolbox           |
|  \\    /   O peration     | Version:  2406                                  |
|   \\  /    A nd           | Website:  www.openfoam.com                      |
|    \\/     M anipulation  |                                                 |
\*---------------------------------------------------------------------------*/
FoamFile
{
    version     2.0;
    format      ascii;
    arch        "LSB;label=32;scalar=64";
    class       volScalarField;
    location    "0.6/fluidRegion";
    object      dgdt.vapour;
}
// * * * * * * * * * * * * * * * * * * * * * * * * * * * * * * * * * * * * * //

dimensions      [0 0 -1 0 0 0 0];

internalField   nonuniform List<scalar> 
70
(
-8.98065e-42
-6.00608e-41
-2.70465e-40
-1.0896e-39
-3.7069e-39
-1.12999e-38
-3.12347e-38
-7.25464e-38
0.221924
0.531623
0.81122
1.06944
1.31336
1.55349
1.79527
2.04289
2.29912
2.56575
2.84369
3.13309
3.43335
3.74313
4.33376
5.06171
5.45307
5.7321
5.95734
6.15031
6.32083
6.47412
6.61332
6.74053
6.85723
6.96459
7.06353
7.15483
7.23918
7.31715
7.37099
7.38597
7.40191
7.41875
7.43641
7.45482
7.47392
7.49364
7.51401
7.52259
7.5233
7.5297
7.53906
7.55043
7.56336
7.57762
7.59304
7.60953
7.62699
7.64536
7.66458
7.68459
7.70535
7.72681
7.74894
7.7717
7.79505
7.81894
7.84346
7.86809
7.89462
8.04328
)
;

boundaryField
{
    inlet
    {
        type            calculated;
        value           uniform -8.98065e-42;
    }
    outlet
    {
        type            calculated;
        value           uniform 8.04328;
    }
    fixedWalls
    {
        type            calculated;
        value           nonuniform List<scalar> 
280
(
-8.98065e-42
-6.00608e-41
-2.70465e-40
-1.0896e-39
-3.7069e-39
-1.12999e-38
-3.12347e-38
-7.25464e-38
0.221924
0.531623
0.81122
1.06944
1.31336
1.55349
1.79527
2.04289
2.29912
2.56575
2.84369
3.13309
3.43335
3.74313
4.33376
5.06171
5.45307
5.7321
5.95734
6.15031
6.32083
6.47412
6.61332
6.74053
6.85723
6.96459
7.06353
7.15483
7.23918
7.31715
7.37099
7.38597
7.40191
7.41875
7.43641
7.45482
7.47392
7.49364
7.51401
7.52259
7.5233
7.5297
7.53906
7.55043
7.56336
7.57762
7.59304
7.60953
7.62699
7.64536
7.66458
7.68459
7.70535
7.72681
7.74894
7.7717
7.79505
7.81894
7.84346
7.86809
7.89462
8.04328
-8.98065e-42
-6.00608e-41
-2.70465e-40
-1.0896e-39
-3.7069e-39
-1.12999e-38
-3.12347e-38
-7.25464e-38
0.221924
0.531623
0.81122
1.06944
1.31336
1.55349
1.79527
2.04289
2.29912
2.56575
2.84369
3.13309
3.43335
3.74313
4.33376
5.06171
5.45307
5.7321
5.95734
6.15031
6.32083
6.47412
6.61332
6.74053
6.85723
6.96459
7.06353
7.15483
7.23918
7.31715
7.37099
7.38597
7.40191
7.41875
7.43641
7.45482
7.47392
7.49364
7.51401
7.52259
7.5233
7.5297
7.53906
7.55043
7.56336
7.57762
7.59304
7.60953
7.62699
7.64536
7.66458
7.68459
7.70535
7.72681
7.74894
7.7717
7.79505
7.81894
7.84346
7.86809
7.89462
8.04328
-8.98065e-42
-6.00608e-41
-2.70465e-40
-1.0896e-39
-3.7069e-39
-1.12999e-38
-3.12347e-38
-7.25464e-38
0.221924
0.531623
0.81122
1.06944
1.31336
1.55349
1.79527
2.04289
2.29912
2.56575
2.84369
3.13309
3.43335
3.74313
4.33376
5.06171
5.45307
5.7321
5.95734
6.15031
6.32083
6.47412
6.61332
6.74053
6.85723
6.96459
7.06353
7.15483
7.23918
7.31715
7.37099
7.38597
7.40191
7.41875
7.43641
7.45482
7.47392
7.49364
7.51401
7.52259
7.5233
7.5297
7.53906
7.55043
7.56336
7.57762
7.59304
7.60953
7.62699
7.64536
7.66458
7.68459
7.70535
7.72681
7.74894
7.7717
7.79505
7.81894
7.84346
7.86809
7.89462
8.04328
-8.98065e-42
-6.00608e-41
-2.70465e-40
-1.0896e-39
-3.7069e-39
-1.12999e-38
-3.12347e-38
-7.25464e-38
0.221924
0.531623
0.81122
1.06944
1.31336
1.55349
1.79527
2.04289
2.29912
2.56575
2.84369
3.13309
3.43335
3.74313
4.33376
5.06171
5.45307
5.7321
5.95734
6.15031
6.32083
6.47412
6.61332
6.74053
6.85723
6.96459
7.06353
7.15483
7.23918
7.31715
7.37099
7.38597
7.40191
7.41875
7.43641
7.45482
7.47392
7.49364
7.51401
7.52259
7.5233
7.5297
7.53906
7.55043
7.56336
7.57762
7.59304
7.60953
7.62699
7.64536
7.66458
7.68459
7.70535
7.72681
7.74894
7.7717
7.79505
7.81894
7.84346
7.86809
7.89462
8.04328
)
;
    }
}


// ************************************************************************* //
