/*--------------------------------*- C++ -*----------------------------------*\
| =========                 |                                                 |
| \\      /  F ield         | OpenFOAM: The Open Source CFD Toolbox           |
|  \\    /   O peration     | Version:  2406                                  |
|   \\  /    A nd           | Website:  www.openfoam.com                      |
|    \\/     M anipulation  |                                                 |
\*---------------------------------------------------------------------------*/
FoamFile
{
    version     2.0;
    format      ascii;
    arch        "LSB;label=32;scalar=64";
    class       volTensorField;
    location    "0.6/fluidRegion";
    object      Kd.liquid.structure;
}
// * * * * * * * * * * * * * * * * * * * * * * * * * * * * * * * * * * * * * //

dimensions      [1 -3 -1 0 0 0 0];

internalField   nonuniform List<tensor> 
70
(
(1132.52 0 0 0 1132.52 0 0 0 1132.52)
(1130.79 0 0 0 1130.79 0 0 0 1130.79)
(1129.05 0 0 0 1129.05 0 0 0 1129.05)
(1127.3 0 0 0 1127.3 0 0 0 1127.3)
(1125.54 0 0 0 1125.54 0 0 0 1125.54)
(1123.78 0 0 0 1123.78 0 0 0 1123.78)
(1122 0 0 0 1122 0 0 0 1122)
(1120.22 0 0 0 1120.22 0 0 0 1120.22)
(1153.1 0 0 0 1153.1 0 0 0 1153.1)
(1223.98 0 0 0 1223.98 0 0 0 1223.98)
(1321.31 0 0 0 1321.31 0 0 0 1321.31)
(1438.95 0 0 0 1438.95 0 0 0 1438.95)
(1575.2 0 0 0 1575.2 0 0 0 1575.2)
(1726.77 0 0 0 1726.77 0 0 0 1726.77)
(1892.23 0 0 0 1892.23 0 0 0 1892.23)
(2070.36 0 0 0 2070.36 0 0 0 2070.36)
(2260.32 0 0 0 2260.32 0 0 0 2260.32)
(2461.4 0 0 0 2461.4 0 0 0 2461.4)
(2672.95 0 0 0 2672.95 0 0 0 2672.95)
(2894.32 0 0 0 2894.32 0 0 0 2894.32)
(3124.81 0 0 0 3124.81 0 0 0 3124.81)
(3363.96 0 0 0 3363.96 0 0 0 3363.96)
(3623.95 0 0 0 3623.95 0 0 0 3623.95)
(3911.02 0 0 0 3911.02 0 0 0 3911.02)
(4208.74 0 0 0 4208.74 0 0 0 4208.74)
(4506.58 0 0 0 4506.58 0 0 0 4506.58)
(4800.82 0 0 0 4800.82 0 0 0 4800.82)
(5090.1 0 0 0 5090.1 0 0 0 5090.1)
(5373.87 0 0 0 5373.87 0 0 0 5373.87)
(5651.94 0 0 0 5651.94 0 0 0 5651.94)
(5924.34 0 0 0 5924.34 0 0 0 5924.34)
(6191.2 0 0 0 6191.2 0 0 0 6191.2)
(6452.68 0 0 0 6452.68 0 0 0 6452.68)
(6709 0 0 0 6709 0 0 0 6709)
(6960.38 0 0 0 6960.38 0 0 0 6960.38)
(7207.06 0 0 0 7207.06 0 0 0 7207.06)
(7449.25 0 0 0 7449.25 0 0 0 7449.25)
(7687.2 0 0 0 7687.2 0 0 0 7687.2)
(7920.77 0 0 0 7920.77 0 0 0 7920.77)
(8149.35 0 0 0 8149.35 0 0 0 8149.35)
(8372.93 0 0 0 8372.93 0 0 0 8372.93)
(8591.91 0 0 0 8591.91 0 0 0 8591.91)
(8806.65 0 0 0 8806.65 0 0 0 8806.65)
(9017.48 0 0 0 9017.48 0 0 0 9017.48)
(9224.73 0 0 0 9224.73 0 0 0 9224.73)
(9428.52 0 0 0 9428.52 0 0 0 9428.52)
(9630.84 0 0 0 9630.84 0 0 0 9630.84)
(9929.4 0 0 0 9929.4 0 0 0 9929.4)
(10353.9 0 0 0 10353.9 0 0 0 10353.9)
(10784.7 0 0 0 10784.7 0 0 0 10784.7)
(11220.8 0 0 0 11220.8 0 0 0 11220.8)
(11663 0 0 0 11663 0 0 0 11663)
(12111.5 0 0 0 12111.5 0 0 0 12111.5)
(12566.5 0 0 0 12566.5 0 0 0 12566.5)
(13028.3 0 0 0 13028.3 0 0 0 13028.3)
(13497 0 0 0 13497 0 0 0 13497)
(13972.8 0 0 0 13972.8 0 0 0 13972.8)
(14455.7 0 0 0 14455.7 0 0 0 14455.7)
(14946.1 0 0 0 14946.1 0 0 0 14946.1)
(15443.9 0 0 0 15443.9 0 0 0 15443.9)
(15949.5 0 0 0 15949.5 0 0 0 15949.5)
(16463 0 0 0 16463 0 0 0 16463)
(16984.4 0 0 0 16984.4 0 0 0 16984.4)
(17514.1 0 0 0 17514.1 0 0 0 17514.1)
(18052 0 0 0 18052 0 0 0 18052)
(18599.3 0 0 0 18599.3 0 0 0 18599.3)
(19152.2 0 0 0 19152.2 0 0 0 19152.2)
(19726.4 0 0 0 19726.4 0 0 0 19726.4)
(20263.2 0 0 0 20263.2 0 0 0 20263.2)
(20985.7 0 0 0 20985.7 0 0 0 20985.7)
)
;

boundaryField
{
    inlet
    {
        type            zeroGradient;
    }
    outlet
    {
        type            zeroGradient;
    }
    fixedWalls
    {
        type            zeroGradient;
    }
}


// ************************************************************************* //
