/*--------------------------------*- C++ -*----------------------------------*\
| =========                 |                                                 |
| \\      /  F ield         | OpenFOAM: The Open Source CFD Toolbox           |
|  \\    /   O peration     | Version:  2406                                  |
|   \\  /    A nd           | Website:  www.openfoam.com                      |
|    \\/     M anipulation  |                                                 |
\*---------------------------------------------------------------------------*/
FoamFile
{
    version     2.0;
    format      ascii;
    arch        "LSB;label=32;scalar=64";
    class       volTensorField;
    location    "0.6/fluidRegion";
    object      KdTotU;
}
// * * * * * * * * * * * * * * * * * * * * * * * * * * * * * * * * * * * * * //

dimensions      [1 -2 -2 0 0 0 0];

internalField   nonuniform List<tensor> 
70
(
(5070.95 0 0 0 5070.95 0 0 0 5070.95)
(5087.08 0 0 0 5087.08 0 0 0 5087.08)
(5103.51 0 0 0 5103.51 0 0 0 5103.51)
(5120.21 0 0 0 5120.21 0 0 0 5120.21)
(5137.18 0 0 0 5137.18 0 0 0 5137.18)
(5154.4 0 0 0 5154.4 0 0 0 5154.4)
(5171.86 0 0 0 5171.86 0 0 0 5171.86)
(5189.55 0 0 0 5189.55 0 0 0 5189.55)
(5373.76 0 0 0 5373.76 0 0 0 5373.76)
(5749.79 0 0 0 5749.79 0 0 0 5749.79)
(6269.41 0 0 0 6269.41 0 0 0 6269.41)
(6907.01 0 0 0 6907.01 0 0 0 6907.01)
(7658.57 0 0 0 7658.57 0 0 0 7658.57)
(8513.05 0 0 0 8513.05 0 0 0 8513.05)
(9468.39 0 0 0 9468.39 0 0 0 9468.39)
(10523.8 0 0 0 10523.8 0 0 0 10523.8)
(11680.3 0 0 0 11680.3 0 0 0 11680.3)
(12939.6 0 0 0 12939.6 0 0 0 12939.6)
(14303.8 0 0 0 14303.8 0 0 0 14303.8)
(15774.8 0 0 0 15774.8 0 0 0 15774.8)
(17353.7 0 0 0 17353.7 0 0 0 17353.7)
(19043.8 0 0 0 19043.8 0 0 0 19043.8)
(20930.3 0 0 0 20930.3 0 0 0 20930.3)
(23072.1 0 0 0 23072.1 0 0 0 23072.1)
(25374.3 0 0 0 25374.3 0 0 0 25374.3)
(27760.2 0 0 0 27760.2 0 0 0 27760.2)
(30198.6 0 0 0 30198.6 0 0 0 30198.6)
(32673.6 0 0 0 32673.6 0 0 0 32673.6)
(35174.5 0 0 0 35174.5 0 0 0 35174.5)
(37693.5 0 0 0 37693.5 0 0 0 37693.5)
(40224.3 0 0 0 40224.3 0 0 0 40224.3)
(42761.9 0 0 0 42761.9 0 0 0 42761.9)
(45301.6 0 0 0 45301.6 0 0 0 45301.6)
(47839.6 0 0 0 47839.6 0 0 0 47839.6)
(50372.4 0 0 0 50372.4 0 0 0 50372.4)
(52896.7 0 0 0 52896.7 0 0 0 52896.7)
(55409.8 0 0 0 55409.8 0 0 0 55409.8)
(57909.1 0 0 0 57909.1 0 0 0 57909.1)
(60388.7 0 0 0 60388.7 0 0 0 60388.7)
(62838.3 0 0 0 62838.3 0 0 0 62838.3)
(65253.9 0 0 0 65253.9 0 0 0 65253.9)
(67636.2 0 0 0 67636.2 0 0 0 67636.2)
(69985.8 0 0 0 69985.8 0 0 0 69985.8)
(72303.5 0 0 0 72303.5 0 0 0 72303.5)
(74589.6 0 0 0 74589.6 0 0 0 74589.6)
(76844.8 0 0 0 76844.8 0 0 0 76844.8)
(79068.5 0 0 0 79068.5 0 0 0 79068.5)
(82014.5 0 0 0 82014.5 0 0 0 82014.5)
(85908 0 0 0 85908 0 0 0 85908)
(89785.4 0 0 0 89785.4 0 0 0 89785.4)
(93663.7 0 0 0 93663.7 0 0 0 93663.7)
(97557.8 0 0 0 97557.8 0 0 0 97557.8)
(101473 0 0 0 101473 0 0 0 101473)
(105413 0 0 0 105413 0 0 0 105413)
(109377 0 0 0 109377 0 0 0 109377)
(113365 0 0 0 113365 0 0 0 113365)
(117377 0 0 0 117377 0 0 0 117377)
(121411 0 0 0 121411 0 0 0 121411)
(125465 0 0 0 125465 0 0 0 125465)
(129538 0 0 0 129538 0 0 0 129538)
(133629 0 0 0 133629 0 0 0 133629)
(137735 0 0 0 137735 0 0 0 137735)
(141856 0 0 0 141856 0 0 0 141856)
(145989 0 0 0 145989 0 0 0 145989)
(150132 0 0 0 150132 0 0 0 150132)
(154292 0 0 0 154292 0 0 0 154292)
(158428 0 0 0 158428 0 0 0 158428)
(162695 0 0 0 162695 0 0 0 162695)
(166497 0 0 0 166497 0 0 0 166497)
(172065 0 0 0 172065 0 0 0 172065)
)
;

boundaryField
{
    inlet
    {
        type            zeroGradient;
    }
    outlet
    {
        type            zeroGradient;
    }
    fixedWalls
    {
        type            zeroGradient;
    }
}


// ************************************************************************* //
