/*--------------------------------*- C++ -*----------------------------------*\
| =========                 |                                                 |
| \\      /  F ield         | OpenFOAM: The Open Source CFD Toolbox           |
|  \\    /   O peration     | Version:  2406                                  |
|   \\  /    A nd           | Website:  www.openfoam.com                      |
|    \\/     M anipulation  |                                                 |
\*---------------------------------------------------------------------------*/
FoamFile
{
    version     2.0;
    format      ascii;
    arch        "LSB;label=32;scalar=64";
    class       volScalarField;
    location    "30/fluidRegion";
    object      alphaRhoMagU.vapour;
}
// * * * * * * * * * * * * * * * * * * * * * * * * * * * * * * * * * * * * * //

dimensions      [1 -2 -1 0 0 0 0];

internalField   nonuniform List<scalar> 
70
(
11.6568
12.0693
12.5013
12.9279
13.357
13.7862
14.2164
14.6473
15.0792
15.5119
15.9456
16.3802
16.8156
17.252
17.6893
18.1276
18.5667
19.0067
19.4476
19.8894
20.3321
20.7756
21.22
21.6653
22.1114
22.5583
23.0061
23.4547
23.904
24.3542
24.8052
25.257
25.7096
26.1629
26.617
27.0718
27.5274
27.9837
28.4407
28.8985
29.357
29.8161
30.276
30.7366
31.1978
31.6597
32.1223
32.5855
33.0494
33.5139
33.979
34.4447
34.9111
35.3781
35.8456
36.3138
36.7828
37.2528
37.7238
38.1958
38.6687
39.1425
39.6173
40.093
40.5695
41.0469
41.5251
42.004
42.4837
42.9668
)
;

boundaryField
{
    inlet
    {
        type            calculated;
        value           uniform 11.3168;
    }
    outlet
    {
        type            calculated;
        value           uniform 42.9664;
    }
    fixedWalls
    {
        type            calculated;
        value           nonuniform List<scalar> 
280
(
11.6568
12.0693
12.5013
12.9279
13.357
13.7862
14.2164
14.6473
15.0792
15.5119
15.9456
16.3802
16.8156
17.252
17.6893
18.1276
18.5667
19.0067
19.4476
19.8894
20.3321
20.7756
21.22
21.6653
22.1114
22.5583
23.0061
23.4547
23.904
24.3542
24.8052
25.257
25.7096
26.1629
26.617
27.0718
27.5274
27.9837
28.4407
28.8985
29.357
29.8161
30.276
30.7366
31.1978
31.6597
32.1223
32.5855
33.0494
33.5139
33.979
34.4447
34.9111
35.3781
35.8456
36.3138
36.7828
37.2528
37.7238
38.1958
38.6687
39.1425
39.6173
40.093
40.5695
41.0469
41.5251
42.004
42.4837
42.9668
11.6568
12.0693
12.5013
12.9279
13.357
13.7862
14.2164
14.6473
15.0792
15.5119
15.9456
16.3802
16.8156
17.252
17.6893
18.1276
18.5667
19.0067
19.4476
19.8894
20.3321
20.7756
21.22
21.6653
22.1114
22.5583
23.0061
23.4547
23.904
24.3542
24.8052
25.257
25.7096
26.1629
26.617
27.0718
27.5274
27.9837
28.4407
28.8985
29.357
29.8161
30.276
30.7366
31.1978
31.6597
32.1223
32.5855
33.0494
33.5139
33.979
34.4447
34.9111
35.3781
35.8456
36.3138
36.7828
37.2528
37.7238
38.1958
38.6687
39.1425
39.6173
40.093
40.5695
41.0469
41.5251
42.004
42.4837
42.9668
11.6568
12.0693
12.5013
12.9279
13.357
13.7862
14.2164
14.6473
15.0792
15.5119
15.9456
16.3802
16.8156
17.252
17.6893
18.1276
18.5667
19.0067
19.4476
19.8894
20.3321
20.7756
21.22
21.6653
22.1114
22.5583
23.0061
23.4547
23.904
24.3542
24.8052
25.257
25.7096
26.1629
26.617
27.0718
27.5274
27.9837
28.4407
28.8985
29.357
29.8161
30.276
30.7366
31.1978
31.6597
32.1223
32.5855
33.0494
33.5139
33.979
34.4447
34.9111
35.3781
35.8456
36.3138
36.7828
37.2528
37.7238
38.1958
38.6687
39.1425
39.6173
40.093
40.5695
41.0469
41.5251
42.004
42.4837
42.9668
11.6568
12.0693
12.5013
12.9279
13.357
13.7862
14.2164
14.6473
15.0792
15.5119
15.9456
16.3802
16.8156
17.252
17.6893
18.1276
18.5667
19.0067
19.4476
19.8894
20.3321
20.7756
21.22
21.6653
22.1114
22.5583
23.0061
23.4547
23.904
24.3542
24.8052
25.257
25.7096
26.1629
26.617
27.0718
27.5274
27.9837
28.4407
28.8985
29.357
29.8161
30.276
30.7366
31.1978
31.6597
32.1223
32.5855
33.0494
33.5139
33.979
34.4447
34.9111
35.3781
35.8456
36.3138
36.7828
37.2528
37.7238
38.1958
38.6687
39.1425
39.6173
40.093
40.5695
41.0469
41.5251
42.004
42.4837
42.9668
)
;
    }
}


// ************************************************************************* //
