/*--------------------------------*- C++ -*----------------------------------*\
| =========                 |                                                 |
| \\      /  F ield         | OpenFOAM: The Open Source CFD Toolbox           |
|  \\    /   O peration     | Version:  2406                                  |
|   \\  /    A nd           | Website:  www.openfoam.com                      |
|    \\/     M anipulation  |                                                 |
\*---------------------------------------------------------------------------*/
FoamFile
{
    version     2.0;
    format      ascii;
    arch        "LSB;label=32;scalar=64";
    class       volScalarField;
    location    "30/fluidRegion";
    object      dgdt.vapour;
}
// * * * * * * * * * * * * * * * * * * * * * * * * * * * * * * * * * * * * * //

dimensions      [0 0 -1 0 0 0 0];

internalField   nonuniform List<scalar> 
70
(
1.49852
1.50319
1.50743
1.51146
1.51533
1.51908
1.52274
1.52632
1.52984
1.5333
1.53672
1.5401
1.54344
1.54674
1.55001
1.55325
1.55646
1.55964
1.56279
1.56591
1.569
1.57206
1.5751
1.57811
1.58108
1.58403
1.58695
1.58984
1.59271
1.59554
1.59835
1.60112
1.60387
1.60659
1.60928
1.61195
1.61458
1.61719
1.61976
1.62231
1.62483
1.62733
1.62979
1.63223
1.63464
1.63703
1.63939
1.64172
1.64402
1.6463
1.64855
1.65078
1.65298
1.65515
1.6573
1.65942
1.66278
1.6664
1.66998
1.67351
1.677
1.68044
1.68384
1.68719
1.69049
1.69375
1.69697
1.70013
1.70326
1.70797
)
;

boundaryField
{
    inlet
    {
        type            calculated;
        value           uniform 1.49852;
    }
    outlet
    {
        type            calculated;
        value           uniform 1.70797;
    }
    fixedWalls
    {
        type            calculated;
        value           nonuniform List<scalar> 
280
(
1.49852
1.50319
1.50743
1.51146
1.51533
1.51908
1.52274
1.52632
1.52984
1.5333
1.53672
1.5401
1.54344
1.54674
1.55001
1.55325
1.55646
1.55964
1.56279
1.56591
1.569
1.57206
1.5751
1.57811
1.58108
1.58403
1.58695
1.58984
1.59271
1.59554
1.59835
1.60112
1.60387
1.60659
1.60928
1.61195
1.61458
1.61719
1.61976
1.62231
1.62483
1.62733
1.62979
1.63223
1.63464
1.63703
1.63939
1.64172
1.64402
1.6463
1.64855
1.65078
1.65298
1.65515
1.6573
1.65942
1.66278
1.6664
1.66998
1.67351
1.677
1.68044
1.68384
1.68719
1.69049
1.69375
1.69697
1.70013
1.70326
1.70797
1.49852
1.50319
1.50743
1.51146
1.51533
1.51908
1.52274
1.52632
1.52984
1.5333
1.53672
1.5401
1.54344
1.54674
1.55001
1.55325
1.55646
1.55964
1.56279
1.56591
1.569
1.57206
1.5751
1.57811
1.58108
1.58403
1.58695
1.58984
1.59271
1.59554
1.59835
1.60112
1.60387
1.60659
1.60928
1.61195
1.61458
1.61719
1.61976
1.62231
1.62483
1.62733
1.62979
1.63223
1.63464
1.63703
1.63939
1.64172
1.64402
1.6463
1.64855
1.65078
1.65298
1.65515
1.6573
1.65942
1.66278
1.6664
1.66998
1.67351
1.677
1.68044
1.68384
1.68719
1.69049
1.69375
1.69697
1.70013
1.70326
1.70797
1.49852
1.50319
1.50743
1.51146
1.51533
1.51908
1.52274
1.52632
1.52984
1.5333
1.53672
1.5401
1.54344
1.54674
1.55001
1.55325
1.55646
1.55964
1.56279
1.56591
1.569
1.57206
1.5751
1.57811
1.58108
1.58403
1.58695
1.58984
1.59271
1.59554
1.59835
1.60112
1.60387
1.60659
1.60928
1.61195
1.61458
1.61719
1.61976
1.62231
1.62483
1.62733
1.62979
1.63223
1.63464
1.63703
1.63939
1.64172
1.64402
1.6463
1.64855
1.65078
1.65298
1.65515
1.6573
1.65942
1.66278
1.6664
1.66998
1.67351
1.677
1.68044
1.68384
1.68719
1.69049
1.69375
1.69697
1.70013
1.70326
1.70797
1.49852
1.50319
1.50743
1.51146
1.51533
1.51908
1.52274
1.52632
1.52984
1.5333
1.53672
1.5401
1.54344
1.54674
1.55001
1.55325
1.55646
1.55964
1.56279
1.56591
1.569
1.57206
1.5751
1.57811
1.58108
1.58403
1.58695
1.58984
1.59271
1.59554
1.59835
1.60112
1.60387
1.60659
1.60928
1.61195
1.61458
1.61719
1.61976
1.62231
1.62483
1.62733
1.62979
1.63223
1.63464
1.63703
1.63939
1.64172
1.64402
1.6463
1.64855
1.65078
1.65298
1.65515
1.6573
1.65942
1.66278
1.6664
1.66998
1.67351
1.677
1.68044
1.68384
1.68719
1.69049
1.69375
1.69697
1.70013
1.70326
1.70797
)
;
    }
}


// ************************************************************************* //
