/*--------------------------------*- C++ -*----------------------------------*\
| =========                 |                                                 |
| \\      /  F ield         | OpenFOAM: The Open Source CFD Toolbox           |
|  \\    /   O peration     | Version:  2406                                  |
|   \\  /    A nd           | Website:  www.openfoam.com                      |
|    \\/     M anipulation  |                                                 |
\*---------------------------------------------------------------------------*/
FoamFile
{
    version     2.0;
    format      ascii;
    arch        "LSB;label=32;scalar=64";
    class       volTensorField;
    location    "30/fluidRegion";
    object      Kd.liquid.structure;
}
// * * * * * * * * * * * * * * * * * * * * * * * * * * * * * * * * * * * * * //

dimensions      [1 -3 -1 0 0 0 0];

internalField   nonuniform List<tensor> 
70
(
(1503.64 0 0 0 1503.64 0 0 0 1503.64)
(1532.41 0 0 0 1532.41 0 0 0 1532.41)
(1562.04 0 0 0 1562.04 0 0 0 1562.04)
(1590.76 0 0 0 1590.76 0 0 0 1590.76)
(1619.19 0 0 0 1619.19 0 0 0 1619.19)
(1647.21 0 0 0 1647.21 0 0 0 1647.21)
(1674.9 0 0 0 1674.9 0 0 0 1674.9)
(1702.28 0 0 0 1702.28 0 0 0 1702.28)
(1729.37 0 0 0 1729.37 0 0 0 1729.37)
(1756.2 0 0 0 1756.2 0 0 0 1756.2)
(1782.77 0 0 0 1782.77 0 0 0 1782.77)
(1809.1 0 0 0 1809.1 0 0 0 1809.1)
(1835.21 0 0 0 1835.21 0 0 0 1835.21)
(1861.1 0 0 0 1861.1 0 0 0 1861.1)
(1886.77 0 0 0 1886.77 0 0 0 1886.77)
(1912.25 0 0 0 1912.25 0 0 0 1912.25)
(1937.54 0 0 0 1937.54 0 0 0 1937.54)
(1962.64 0 0 0 1962.64 0 0 0 1962.64)
(1987.56 0 0 0 1987.56 0 0 0 1987.56)
(2012.3 0 0 0 2012.3 0 0 0 2012.3)
(2036.87 0 0 0 2036.87 0 0 0 2036.87)
(2061.29 0 0 0 2061.29 0 0 0 2061.29)
(2085.54 0 0 0 2085.54 0 0 0 2085.54)
(2109.63 0 0 0 2109.63 0 0 0 2109.63)
(2133.58 0 0 0 2133.58 0 0 0 2133.58)
(2157.38 0 0 0 2157.38 0 0 0 2157.38)
(2181.04 0 0 0 2181.04 0 0 0 2181.04)
(2204.55 0 0 0 2204.55 0 0 0 2204.55)
(2227.94 0 0 0 2227.94 0 0 0 2227.94)
(2251.19 0 0 0 2251.19 0 0 0 2251.19)
(2274.31 0 0 0 2274.31 0 0 0 2274.31)
(2297.31 0 0 0 2297.31 0 0 0 2297.31)
(2320.18 0 0 0 2320.18 0 0 0 2320.18)
(2342.94 0 0 0 2342.94 0 0 0 2342.94)
(2365.57 0 0 0 2365.57 0 0 0 2365.57)
(2388.1 0 0 0 2388.1 0 0 0 2388.1)
(2410.51 0 0 0 2410.51 0 0 0 2410.51)
(2432.82 0 0 0 2432.82 0 0 0 2432.82)
(2455.01 0 0 0 2455.01 0 0 0 2455.01)
(2477.11 0 0 0 2477.11 0 0 0 2477.11)
(2499.1 0 0 0 2499.1 0 0 0 2499.1)
(2520.99 0 0 0 2520.99 0 0 0 2520.99)
(2542.79 0 0 0 2542.79 0 0 0 2542.79)
(2564.48 0 0 0 2564.48 0 0 0 2564.48)
(2586.09 0 0 0 2586.09 0 0 0 2586.09)
(2607.6 0 0 0 2607.6 0 0 0 2607.6)
(2629.02 0 0 0 2629.02 0 0 0 2629.02)
(2650.36 0 0 0 2650.36 0 0 0 2650.36)
(2671.61 0 0 0 2671.61 0 0 0 2671.61)
(2692.77 0 0 0 2692.77 0 0 0 2692.77)
(2713.85 0 0 0 2713.85 0 0 0 2713.85)
(2734.85 0 0 0 2734.85 0 0 0 2734.85)
(2755.77 0 0 0 2755.77 0 0 0 2755.77)
(2776.61 0 0 0 2776.61 0 0 0 2776.61)
(2797.37 0 0 0 2797.37 0 0 0 2797.37)
(2818.06 0 0 0 2818.06 0 0 0 2818.06)
(2838.67 0 0 0 2838.67 0 0 0 2838.67)
(2859.24 0 0 0 2859.24 0 0 0 2859.24)
(2879.74 0 0 0 2879.74 0 0 0 2879.74)
(2900.2 0 0 0 2900.2 0 0 0 2900.2)
(2920.6 0 0 0 2920.6 0 0 0 2920.6)
(2940.95 0 0 0 2940.95 0 0 0 2940.95)
(2961.25 0 0 0 2961.25 0 0 0 2961.25)
(2981.51 0 0 0 2981.51 0 0 0 2981.51)
(3001.71 0 0 0 3001.71 0 0 0 3001.71)
(3021.87 0 0 0 3021.87 0 0 0 3021.87)
(3041.98 0 0 0 3041.98 0 0 0 3041.98)
(3062.04 0 0 0 3062.04 0 0 0 3062.04)
(3082.07 0 0 0 3082.07 0 0 0 3082.07)
(3101.94 0 0 0 3101.94 0 0 0 3101.94)
)
;

boundaryField
{
    inlet
    {
        type            zeroGradient;
    }
    outlet
    {
        type            zeroGradient;
    }
    fixedWalls
    {
        type            zeroGradient;
    }
}


// ************************************************************************* //
