/*--------------------------------*- C++ -*----------------------------------*\
| =========                 |                                                 |
| \\      /  F ield         | OpenFOAM: The Open Source CFD Toolbox           |
|  \\    /   O peration     | Version:  2406                                  |
|   \\  /    A nd           | Website:  www.openfoam.com                      |
|    \\/     M anipulation  |                                                 |
\*---------------------------------------------------------------------------*/
FoamFile
{
    version     2.0;
    format      ascii;
    arch        "LSB;label=32;scalar=64";
    class       volTensorField;
    location    "30/fluidRegion";
    object      KdTotU;
}
// * * * * * * * * * * * * * * * * * * * * * * * * * * * * * * * * * * * * * //

dimensions      [1 -2 -2 0 0 0 0];

internalField   nonuniform List<tensor> 
70
(
(2526.5 0 0 0 2526.5 0 0 0 2526.5)
(2589.99 0 0 0 2589.99 0 0 0 2589.99)
(2654.97 0 0 0 2654.97 0 0 0 2654.97)
(2719.27 0 0 0 2719.27 0 0 0 2719.27)
(2783.58 0 0 0 2783.58 0 0 0 2783.58)
(2847.7 0 0 0 2847.7 0 0 0 2847.7)
(2911.71 0 0 0 2911.71 0 0 0 2911.71)
(2975.59 0 0 0 2975.59 0 0 0 2975.59)
(3039.36 0 0 0 3039.36 0 0 0 3039.36)
(3103.03 0 0 0 3103.03 0 0 0 3103.03)
(3166.59 0 0 0 3166.59 0 0 0 3166.59)
(3230.05 0 0 0 3230.05 0 0 0 3230.05)
(3293.42 0 0 0 3293.42 0 0 0 3293.42)
(3356.69 0 0 0 3356.69 0 0 0 3356.69)
(3419.88 0 0 0 3419.88 0 0 0 3419.88)
(3482.97 0 0 0 3482.97 0 0 0 3482.97)
(3545.98 0 0 0 3545.98 0 0 0 3545.98)
(3608.91 0 0 0 3608.91 0 0 0 3608.91)
(3671.75 0 0 0 3671.75 0 0 0 3671.75)
(3734.52 0 0 0 3734.52 0 0 0 3734.52)
(3797.2 0 0 0 3797.2 0 0 0 3797.2)
(3859.8 0 0 0 3859.8 0 0 0 3859.8)
(3922.33 0 0 0 3922.33 0 0 0 3922.33)
(3984.77 0 0 0 3984.77 0 0 0 3984.77)
(4047.15 0 0 0 4047.15 0 0 0 4047.15)
(4109.44 0 0 0 4109.44 0 0 0 4109.44)
(4171.66 0 0 0 4171.66 0 0 0 4171.66)
(4233.81 0 0 0 4233.81 0 0 0 4233.81)
(4295.88 0 0 0 4295.88 0 0 0 4295.88)
(4357.88 0 0 0 4357.88 0 0 0 4357.88)
(4419.81 0 0 0 4419.81 0 0 0 4419.81)
(4481.66 0 0 0 4481.66 0 0 0 4481.66)
(4543.44 0 0 0 4543.44 0 0 0 4543.44)
(4605.15 0 0 0 4605.15 0 0 0 4605.15)
(4666.79 0 0 0 4666.79 0 0 0 4666.79)
(4728.35 0 0 0 4728.35 0 0 0 4728.35)
(4789.84 0 0 0 4789.84 0 0 0 4789.84)
(4851.26 0 0 0 4851.26 0 0 0 4851.26)
(4912.6 0 0 0 4912.6 0 0 0 4912.6)
(4973.88 0 0 0 4973.88 0 0 0 4973.88)
(5035.08 0 0 0 5035.08 0 0 0 5035.08)
(5096.21 0 0 0 5096.21 0 0 0 5096.21)
(5157.26 0 0 0 5157.26 0 0 0 5157.26)
(5218.24 0 0 0 5218.24 0 0 0 5218.24)
(5279.15 0 0 0 5279.15 0 0 0 5279.15)
(5339.99 0 0 0 5339.99 0 0 0 5339.99)
(5400.75 0 0 0 5400.75 0 0 0 5400.75)
(5461.44 0 0 0 5461.44 0 0 0 5461.44)
(5522.05 0 0 0 5522.05 0 0 0 5522.05)
(5582.59 0 0 0 5582.59 0 0 0 5582.59)
(5643.05 0 0 0 5643.05 0 0 0 5643.05)
(5703.44 0 0 0 5703.44 0 0 0 5703.44)
(5763.76 0 0 0 5763.76 0 0 0 5763.76)
(5824 0 0 0 5824 0 0 0 5824)
(5884.16 0 0 0 5884.16 0 0 0 5884.16)
(5944.25 0 0 0 5944.25 0 0 0 5944.25)
(6004.29 0 0 0 6004.29 0 0 0 6004.29)
(6064.3 0 0 0 6064.3 0 0 0 6064.3)
(6124.29 0 0 0 6124.29 0 0 0 6124.29)
(6184.26 0 0 0 6184.26 0 0 0 6184.26)
(6244.21 0 0 0 6244.21 0 0 0 6244.21)
(6304.13 0 0 0 6304.13 0 0 0 6304.13)
(6364.02 0 0 0 6364.02 0 0 0 6364.02)
(6423.9 0 0 0 6423.9 0 0 0 6423.9)
(6483.75 0 0 0 6483.75 0 0 0 6483.75)
(6543.58 0 0 0 6543.58 0 0 0 6543.58)
(6603.39 0 0 0 6603.39 0 0 0 6603.39)
(6663.18 0 0 0 6663.18 0 0 0 6663.18)
(6722.95 0 0 0 6722.95 0 0 0 6722.95)
(6782.82 0 0 0 6782.82 0 0 0 6782.82)
)
;

boundaryField
{
    inlet
    {
        type            zeroGradient;
    }
    outlet
    {
        type            zeroGradient;
    }
    fixedWalls
    {
        type            zeroGradient;
    }
}


// ************************************************************************* //
