/*--------------------------------*- C++ -*----------------------------------*\
| =========                 |                                                 |
| \\      /  F ield         | OpenFOAM: The Open Source CFD Toolbox           |
|  \\    /   O peration     | Version:  2406                                  |
|   \\  /    A nd           | Website:  www.openfoam.com                      |
|    \\/     M anipulation  |                                                 |
\*---------------------------------------------------------------------------*/
FoamFile
{
    version     2.0;
    format      ascii;
    arch        "LSB;label=32;scalar=64";
    class       volScalarField;
    location    "30/fluidRegion";
    object      p;
}
// * * * * * * * * * * * * * * * * * * * * * * * * * * * * * * * * * * * * * //

dimensions      [1 -1 -2 0 0 0 0];

internalField   nonuniform List<scalar> 
70
(
7.20742e+06
7.20736e+06
7.2073e+06
7.20723e+06
7.20716e+06
7.20709e+06
7.20702e+06
7.20695e+06
7.20688e+06
7.20681e+06
7.20673e+06
7.20665e+06
7.20658e+06
7.2065e+06
7.20642e+06
7.20633e+06
7.20625e+06
7.20617e+06
7.20608e+06
7.206e+06
7.20591e+06
7.20582e+06
7.20573e+06
7.20564e+06
7.20554e+06
7.20545e+06
7.20536e+06
7.20526e+06
7.20516e+06
7.20506e+06
7.20496e+06
7.20486e+06
7.20476e+06
7.20465e+06
7.20455e+06
7.20444e+06
7.20433e+06
7.20422e+06
7.20411e+06
7.204e+06
7.20389e+06
7.20378e+06
7.20366e+06
7.20354e+06
7.20343e+06
7.20331e+06
7.20319e+06
7.20307e+06
7.20294e+06
7.20282e+06
7.20269e+06
7.20257e+06
7.20244e+06
7.20231e+06
7.20218e+06
7.20205e+06
7.20192e+06
7.20178e+06
7.20165e+06
7.20151e+06
7.20137e+06
7.20123e+06
7.20109e+06
7.20095e+06
7.20081e+06
7.20067e+06
7.20052e+06
7.20037e+06
7.20023e+06
7.20008e+06
)
;

boundaryField
{
    inlet
    {
        type            calculated;
        value           uniform 7.20745e+06;
    }
    outlet
    {
        type            calculated;
        value           uniform 7.2e+06;
    }
    fixedWalls
    {
        type            calculated;
        value           nonuniform List<scalar> 
280
(
7.20742e+06
7.20736e+06
7.2073e+06
7.20723e+06
7.20716e+06
7.20709e+06
7.20702e+06
7.20695e+06
7.20688e+06
7.20681e+06
7.20673e+06
7.20665e+06
7.20658e+06
7.2065e+06
7.20642e+06
7.20633e+06
7.20625e+06
7.20617e+06
7.20608e+06
7.206e+06
7.20591e+06
7.20582e+06
7.20573e+06
7.20564e+06
7.20554e+06
7.20545e+06
7.20536e+06
7.20526e+06
7.20516e+06
7.20506e+06
7.20496e+06
7.20486e+06
7.20476e+06
7.20465e+06
7.20455e+06
7.20444e+06
7.20433e+06
7.20422e+06
7.20411e+06
7.204e+06
7.20389e+06
7.20378e+06
7.20366e+06
7.20354e+06
7.20343e+06
7.20331e+06
7.20319e+06
7.20307e+06
7.20294e+06
7.20282e+06
7.20269e+06
7.20257e+06
7.20244e+06
7.20231e+06
7.20218e+06
7.20205e+06
7.20192e+06
7.20178e+06
7.20165e+06
7.20151e+06
7.20137e+06
7.20123e+06
7.20109e+06
7.20095e+06
7.20081e+06
7.20067e+06
7.20052e+06
7.20037e+06
7.20023e+06
7.20008e+06
7.20742e+06
7.20736e+06
7.2073e+06
7.20723e+06
7.20716e+06
7.20709e+06
7.20702e+06
7.20695e+06
7.20688e+06
7.20681e+06
7.20673e+06
7.20665e+06
7.20658e+06
7.2065e+06
7.20642e+06
7.20633e+06
7.20625e+06
7.20617e+06
7.20608e+06
7.206e+06
7.20591e+06
7.20582e+06
7.20573e+06
7.20564e+06
7.20554e+06
7.20545e+06
7.20536e+06
7.20526e+06
7.20516e+06
7.20506e+06
7.20496e+06
7.20486e+06
7.20476e+06
7.20465e+06
7.20455e+06
7.20444e+06
7.20433e+06
7.20422e+06
7.20411e+06
7.204e+06
7.20389e+06
7.20378e+06
7.20366e+06
7.20354e+06
7.20343e+06
7.20331e+06
7.20319e+06
7.20307e+06
7.20294e+06
7.20282e+06
7.20269e+06
7.20257e+06
7.20244e+06
7.20231e+06
7.20218e+06
7.20205e+06
7.20192e+06
7.20178e+06
7.20165e+06
7.20151e+06
7.20137e+06
7.20123e+06
7.20109e+06
7.20095e+06
7.20081e+06
7.20067e+06
7.20052e+06
7.20037e+06
7.20023e+06
7.20008e+06
7.20742e+06
7.20736e+06
7.2073e+06
7.20723e+06
7.20716e+06
7.20709e+06
7.20702e+06
7.20695e+06
7.20688e+06
7.20681e+06
7.20673e+06
7.20665e+06
7.20658e+06
7.2065e+06
7.20642e+06
7.20633e+06
7.20625e+06
7.20617e+06
7.20608e+06
7.206e+06
7.20591e+06
7.20582e+06
7.20573e+06
7.20564e+06
7.20554e+06
7.20545e+06
7.20536e+06
7.20526e+06
7.20516e+06
7.20506e+06
7.20496e+06
7.20486e+06
7.20476e+06
7.20465e+06
7.20455e+06
7.20444e+06
7.20433e+06
7.20422e+06
7.20411e+06
7.204e+06
7.20389e+06
7.20378e+06
7.20366e+06
7.20354e+06
7.20343e+06
7.20331e+06
7.20319e+06
7.20307e+06
7.20294e+06
7.20282e+06
7.20269e+06
7.20257e+06
7.20244e+06
7.20231e+06
7.20218e+06
7.20205e+06
7.20192e+06
7.20178e+06
7.20165e+06
7.20151e+06
7.20137e+06
7.20123e+06
7.20109e+06
7.20095e+06
7.20081e+06
7.20067e+06
7.20052e+06
7.20037e+06
7.20023e+06
7.20008e+06
7.20742e+06
7.20736e+06
7.2073e+06
7.20723e+06
7.20716e+06
7.20709e+06
7.20702e+06
7.20695e+06
7.20688e+06
7.20681e+06
7.20673e+06
7.20665e+06
7.20658e+06
7.2065e+06
7.20642e+06
7.20633e+06
7.20625e+06
7.20617e+06
7.20608e+06
7.206e+06
7.20591e+06
7.20582e+06
7.20573e+06
7.20564e+06
7.20554e+06
7.20545e+06
7.20536e+06
7.20526e+06
7.20516e+06
7.20506e+06
7.20496e+06
7.20486e+06
7.20476e+06
7.20465e+06
7.20455e+06
7.20444e+06
7.20433e+06
7.20422e+06
7.20411e+06
7.204e+06
7.20389e+06
7.20378e+06
7.20366e+06
7.20354e+06
7.20343e+06
7.20331e+06
7.20319e+06
7.20307e+06
7.20294e+06
7.20282e+06
7.20269e+06
7.20257e+06
7.20244e+06
7.20231e+06
7.20218e+06
7.20205e+06
7.20192e+06
7.20178e+06
7.20165e+06
7.20151e+06
7.20137e+06
7.20123e+06
7.20109e+06
7.20095e+06
7.20081e+06
7.20067e+06
7.20052e+06
7.20037e+06
7.20023e+06
7.20008e+06
)
;
    }
}


// ************************************************************************* //
