/*--------------------------------*- C++ -*----------------------------------*\
| =========                 |                                                 |
| \\      /  F ield         | OpenFOAM: The Open Source CFD Toolbox           |
|  \\    /   O peration     | Version:  2406                                  |
|   \\  /    A nd           | Website:  www.openfoam.com                      |
|    \\/     M anipulation  |                                                 |
\*---------------------------------------------------------------------------*/
FoamFile
{
    version     2.0;
    format      ascii;
    arch        "LSB;label=32;scalar=64";
    class       volTensorField;
    location    "0.6/fluidRegion";
    object      Kd.liquid.structure;
}
// * * * * * * * * * * * * * * * * * * * * * * * * * * * * * * * * * * * * * //

dimensions      [1 -3 -1 0 0 0 0];

internalField   nonuniform List<tensor> 
75
(
(1136.21 0 0 0 1136.21 0 0 0 1136.21)
(1136.22 0 0 0 1136.22 0 0 0 1136.22)
(1136.22 0 0 0 1136.22 0 0 0 1136.22)
(1136.23 0 0 0 1136.23 0 0 0 1136.23)
(1136.23 0 0 0 1136.23 0 0 0 1136.23)
(1136.18 0 0 0 1136.18 0 0 0 1136.18)
(1136.04 0 0 0 1136.04 0 0 0 1136.04)
(1135.86 0 0 0 1135.86 0 0 0 1135.86)
(1135.62 0 0 0 1135.62 0 0 0 1135.62)
(1135.33 0 0 0 1135.33 0 0 0 1135.33)
(1135 0 0 0 1135 0 0 0 1135)
(1134.61 0 0 0 1134.61 0 0 0 1134.61)
(1134.17 0 0 0 1134.17 0 0 0 1134.17)
(1133.68 0 0 0 1133.68 0 0 0 1133.68)
(1133.15 0 0 0 1133.15 0 0 0 1133.15)
(1132.57 0 0 0 1132.57 0 0 0 1132.57)
(1131.94 0 0 0 1131.94 0 0 0 1131.94)
(1131.27 0 0 0 1131.27 0 0 0 1131.27)
(1130.55 0 0 0 1130.55 0 0 0 1130.55)
(1129.79 0 0 0 1129.79 0 0 0 1129.79)
(1128.99 0 0 0 1128.99 0 0 0 1128.99)
(1128.15 0 0 0 1128.15 0 0 0 1128.15)
(1127.27 0 0 0 1127.27 0 0 0 1127.27)
(1126.35 0 0 0 1126.35 0 0 0 1126.35)
(1125.4 0 0 0 1125.4 0 0 0 1125.4)
(1124.41 0 0 0 1124.41 0 0 0 1124.41)
(1123.39 0 0 0 1123.39 0 0 0 1123.39)
(1122.34 0 0 0 1122.34 0 0 0 1122.34)
(1121.26 0 0 0 1121.26 0 0 0 1121.26)
(1120.15 0 0 0 1120.15 0 0 0 1120.15)
(1119.02 0 0 0 1119.02 0 0 0 1119.02)
(1117.86 0 0 0 1117.86 0 0 0 1117.86)
(1116.68 0 0 0 1116.68 0 0 0 1116.68)
(1115.49 0 0 0 1115.49 0 0 0 1115.49)
(1114.28 0 0 0 1114.28 0 0 0 1114.28)
(1120.15 0 0 0 1120.15 0 0 0 1120.15)
(1165.42 0 0 0 1165.42 0 0 0 1165.42)
(1239.81 0 0 0 1239.81 0 0 0 1239.81)
(1334.29 0 0 0 1334.29 0 0 0 1334.29)
(1444.15 0 0 0 1444.15 0 0 0 1444.15)
(1568.11 0 0 0 1568.11 0 0 0 1568.11)
(1702.86 0 0 0 1702.86 0 0 0 1702.86)
(1846.59 0 0 0 1846.59 0 0 0 1846.59)
(1997.64 0 0 0 1997.64 0 0 0 1997.64)
(2154.65 0 0 0 2154.65 0 0 0 2154.65)
(2316.45 0 0 0 2316.45 0 0 0 2316.45)
(2481.96 0 0 0 2481.96 0 0 0 2481.96)
(2650.23 0 0 0 2650.23 0 0 0 2650.23)
(2820.31 0 0 0 2820.31 0 0 0 2820.31)
(2991.35 0 0 0 2991.35 0 0 0 2991.35)
(3162.5 0 0 0 3162.5 0 0 0 3162.5)
(3332.94 0 0 0 3332.94 0 0 0 3332.94)
(3502.04 0 0 0 3502.04 0 0 0 3502.04)
(3675.86 0 0 0 3675.86 0 0 0 3675.86)
(3851 0 0 0 3851 0 0 0 3851)
(4022.53 0 0 0 4022.53 0 0 0 4022.53)
(4187.8 0 0 0 4187.8 0 0 0 4187.8)
(4345.63 0 0 0 4345.63 0 0 0 4345.63)
(4495.4 0 0 0 4495.4 0 0 0 4495.4)
(4636.78 0 0 0 4636.78 0 0 0 4636.78)
(4769.58 0 0 0 4769.58 0 0 0 4769.58)
(4893.7 0 0 0 4893.7 0 0 0 4893.7)
(5009.05 0 0 0 5009.05 0 0 0 5009.05)
(5115.62 0 0 0 5115.62 0 0 0 5115.62)
(5213.36 0 0 0 5213.36 0 0 0 5213.36)
(5301.67 0 0 0 5301.67 0 0 0 5301.67)
(5380.1 0 0 0 5380.1 0 0 0 5380.1)
(5448.71 0 0 0 5448.71 0 0 0 5448.71)
(5507.68 0 0 0 5507.68 0 0 0 5507.68)
(5557.17 0 0 0 5557.17 0 0 0 5557.17)
(5597.35 0 0 0 5597.35 0 0 0 5597.35)
(5628.37 0 0 0 5628.37 0 0 0 5628.37)
(5650.43 0 0 0 5650.43 0 0 0 5650.43)
(5663.87 0 0 0 5663.87 0 0 0 5663.87)
(5669.65 0 0 0 5669.65 0 0 0 5669.65)
)
;

boundaryField
{
    inlet
    {
        type            zeroGradient;
    }
    outlet
    {
        type            zeroGradient;
    }
    fixedWalls
    {
        type            zeroGradient;
    }
}


// ************************************************************************* //
