/*--------------------------------*- C++ -*----------------------------------*\
| =========                 |                                                 |
| \\      /  F ield         | OpenFOAM: The Open Source CFD Toolbox           |
|  \\    /   O peration     | Version:  2406                                  |
|   \\  /    A nd           | Website:  www.openfoam.com                      |
|    \\/     M anipulation  |                                                 |
\*---------------------------------------------------------------------------*/
FoamFile
{
    version     2.0;
    format      ascii;
    arch        "LSB;label=32;scalar=64";
    class       volTensorField;
    location    "0.6/fluidRegion";
    object      KdTotU;
}
// * * * * * * * * * * * * * * * * * * * * * * * * * * * * * * * * * * * * * //

dimensions      [1 -2 -2 0 0 0 0];

internalField   nonuniform List<tensor> 
75
(
(5075.59 0 0 0 5075.59 0 0 0 5075.59)
(5075.62 0 0 0 5075.62 0 0 0 5075.62)
(5075.66 0 0 0 5075.66 0 0 0 5075.66)
(5075.7 0 0 0 5075.7 0 0 0 5075.7)
(5075.74 0 0 0 5075.74 0 0 0 5075.74)
(5075.71 0 0 0 5075.71 0 0 0 5075.71)
(5075.85 0 0 0 5075.85 0 0 0 5075.85)
(5076.48 0 0 0 5076.48 0 0 0 5076.48)
(5077.6 0 0 0 5077.6 0 0 0 5077.6)
(5079.2 0 0 0 5079.2 0 0 0 5079.2)
(5081.29 0 0 0 5081.29 0 0 0 5081.29)
(5083.86 0 0 0 5083.86 0 0 0 5083.86)
(5086.92 0 0 0 5086.92 0 0 0 5086.92)
(5090.46 0 0 0 5090.46 0 0 0 5090.46)
(5094.49 0 0 0 5094.49 0 0 0 5094.49)
(5098.99 0 0 0 5098.99 0 0 0 5098.99)
(5103.97 0 0 0 5103.97 0 0 0 5103.97)
(5109.43 0 0 0 5109.43 0 0 0 5109.43)
(5115.36 0 0 0 5115.36 0 0 0 5115.36)
(5121.75 0 0 0 5121.75 0 0 0 5121.75)
(5128.6 0 0 0 5128.6 0 0 0 5128.6)
(5135.9 0 0 0 5135.9 0 0 0 5135.9)
(5143.65 0 0 0 5143.65 0 0 0 5143.65)
(5151.84 0 0 0 5151.84 0 0 0 5151.84)
(5160.45 0 0 0 5160.45 0 0 0 5160.45)
(5169.47 0 0 0 5169.47 0 0 0 5169.47)
(5178.9 0 0 0 5178.9 0 0 0 5178.9)
(5188.71 0 0 0 5188.71 0 0 0 5188.71)
(5198.9 0 0 0 5198.9 0 0 0 5198.9)
(5209.44 0 0 0 5209.44 0 0 0 5209.44)
(5220.31 0 0 0 5220.31 0 0 0 5220.31)
(5231.5 0 0 0 5231.5 0 0 0 5231.5)
(5242.98 0 0 0 5242.98 0 0 0 5242.98)
(5254.73 0 0 0 5254.73 0 0 0 5254.73)
(5266.73 0 0 0 5266.73 0 0 0 5266.73)
(5313.45 0 0 0 5313.45 0 0 0 5313.45)
(5555.29 0 0 0 5555.29 0 0 0 5555.29)
(5950.45 0 0 0 5950.45 0 0 0 5950.45)
(6457.92 0 0 0 6457.92 0 0 0 6457.92)
(7057.25 0 0 0 7057.25 0 0 0 7057.25)
(7744.45 0 0 0 7744.45 0 0 0 7744.45)
(8506.01 0 0 0 8506.01 0 0 0 8506.01)
(9335.31 0 0 0 9335.31 0 0 0 9335.31)
(10226 0 0 0 10226 0 0 0 10226)
(11173.1 0 0 0 11173.1 0 0 0 11173.1)
(12171.7 0 0 0 12171.7 0 0 0 12171.7)
(13217.4 0 0 0 13217.4 0 0 0 13217.4)
(14305.6 0 0 0 14305.6 0 0 0 14305.6)
(15431.4 0 0 0 15431.4 0 0 0 15431.4)
(16590 0 0 0 16590 0 0 0 16590)
(17775.8 0 0 0 17775.8 0 0 0 17775.8)
(18983.2 0 0 0 18983.2 0 0 0 18983.2)
(20207.4 0 0 0 20207.4 0 0 0 20207.4)
(21487.1 0 0 0 21487.1 0 0 0 21487.1)
(22803.2 0 0 0 22803.2 0 0 0 22803.2)
(24119.1 0 0 0 24119.1 0 0 0 24119.1)
(25412.8 0 0 0 25412.8 0 0 0 25412.8)
(26671.6 0 0 0 26671.6 0 0 0 26671.6)
(27887.1 0 0 0 27887.1 0 0 0 27887.1)
(29053.1 0 0 0 29053.1 0 0 0 29053.1)
(30164.4 0 0 0 30164.4 0 0 0 30164.4)
(31217 0 0 0 31217 0 0 0 31217)
(32207.1 0 0 0 32207.1 0 0 0 32207.1)
(33131.7 0 0 0 33131.7 0 0 0 33131.7)
(33988 0 0 0 33988 0 0 0 33988)
(34768.9 0 0 0 34768.9 0 0 0 34768.9)
(35468.4 0 0 0 35468.4 0 0 0 35468.4)
(36085.1 0 0 0 36085.1 0 0 0 36085.1)
(36618.9 0 0 0 36618.9 0 0 0 36618.9)
(37069.9 0 0 0 37069.9 0 0 0 37069.9)
(37438.3 0 0 0 37438.3 0 0 0 37438.3)
(37724.9 0 0 0 37724.9 0 0 0 37724.9)
(37930.6 0 0 0 37930.6 0 0 0 37930.6)
(38057.9 0 0 0 38057.9 0 0 0 38057.9)
(38114.8 0 0 0 38114.8 0 0 0 38114.8)
)
;

boundaryField
{
    inlet
    {
        type            zeroGradient;
    }
    outlet
    {
        type            zeroGradient;
    }
    fixedWalls
    {
        type            zeroGradient;
    }
}


// ************************************************************************* //
