/*--------------------------------*- C++ -*----------------------------------*\
| =========                 |                                                 |
| \\      /  F ield         | OpenFOAM: The Open Source CFD Toolbox           |
|  \\    /   O peration     | Version:  2406                                  |
|   \\  /    A nd           | Website:  www.openfoam.com                      |
|    \\/     M anipulation  |                                                 |
\*---------------------------------------------------------------------------*/
FoamFile
{
    version     2.0;
    format      ascii;
    arch        "LSB;label=32;scalar=64";
    class       volScalarField;
    location    "30/fluidRegion";
    object      alphaRhoMagU.vapour;
}
// * * * * * * * * * * * * * * * * * * * * * * * * * * * * * * * * * * * * * //

dimensions      [1 -2 -1 0 0 0 0];

internalField   nonuniform List<scalar> 
75
(
0.0231294
0.0237817
0.024443
0.0250763
0.0306281
0.851197
1.97132
3.06712
4.11277
5.1347
6.15054
7.1665
8.18384
9.2034
10.2255
11.2504
12.2782
13.3089
14.3425
15.379
16.4185
17.4618
18.5098
19.5626
20.6199
21.6816
22.7475
23.8172
24.8911
25.9652
27.0253
28.0746
29.125
30.1746
31.2248
32.2757
33.3274
34.3802
35.4343
36.4897
37.5465
38.6049
39.6648
40.7264
41.7895
42.8542
43.9206
44.9885
46.0581
47.1292
48.2019
49.2761
50.3518
51.4289
52.5074
53.5872
54.6684
55.7508
56.8344
57.9192
59.005
60.0919
61.1798
62.2685
63.3581
64.4483
65.5393
66.6308
67.7234
68.816
69.9122
71.003
72.1153
73.1728
74.3926
)
;

boundaryField
{
    inlet
    {
        type            calculated;
        value           uniform 0.0226329;
    }
    outlet
    {
        type            calculated;
        value           uniform 74.3908;
    }
    fixedWalls
    {
        type            calculated;
        value           nonuniform List<scalar> 
300
(
0.0231294
0.0237817
0.024443
0.0250763
0.0306281
0.851197
1.97132
3.06712
4.11277
5.1347
6.15054
7.1665
8.18384
9.2034
10.2255
11.2504
12.2782
13.3089
14.3425
15.379
16.4185
17.4618
18.5098
19.5626
20.6199
21.6816
22.7475
23.8172
24.8911
25.9652
27.0253
28.0746
29.125
30.1746
31.2248
32.2757
33.3274
34.3802
35.4343
36.4897
37.5465
38.6049
39.6648
40.7264
41.7895
42.8542
43.9206
44.9885
46.0581
47.1292
48.2019
49.2761
50.3518
51.4289
52.5074
53.5872
54.6684
55.7508
56.8344
57.9192
59.005
60.0919
61.1798
62.2685
63.3581
64.4483
65.5393
66.6308
67.7234
68.816
69.9122
71.003
72.1153
73.1728
74.3926
0.0231294
0.0237817
0.024443
0.0250763
0.0306281
0.851197
1.97132
3.06712
4.11277
5.1347
6.15054
7.1665
8.18384
9.2034
10.2255
11.2504
12.2782
13.3089
14.3425
15.379
16.4185
17.4618
18.5098
19.5626
20.6199
21.6816
22.7475
23.8172
24.8911
25.9652
27.0253
28.0746
29.125
30.1746
31.2248
32.2757
33.3274
34.3802
35.4343
36.4897
37.5465
38.6049
39.6648
40.7264
41.7895
42.8542
43.9206
44.9885
46.0581
47.1292
48.2019
49.2761
50.3518
51.4289
52.5074
53.5872
54.6684
55.7508
56.8344
57.9192
59.005
60.0919
61.1798
62.2685
63.3581
64.4483
65.5393
66.6308
67.7234
68.816
69.9122
71.003
72.1153
73.1728
74.3926
0.0231294
0.0237817
0.024443
0.0250763
0.0306281
0.851197
1.97132
3.06712
4.11277
5.1347
6.15054
7.1665
8.18384
9.2034
10.2255
11.2504
12.2782
13.3089
14.3425
15.379
16.4185
17.4618
18.5098
19.5626
20.6199
21.6816
22.7475
23.8172
24.8911
25.9652
27.0253
28.0746
29.125
30.1746
31.2248
32.2757
33.3274
34.3802
35.4343
36.4897
37.5465
38.6049
39.6648
40.7264
41.7895
42.8542
43.9206
44.9885
46.0581
47.1292
48.2019
49.2761
50.3518
51.4289
52.5074
53.5872
54.6684
55.7508
56.8344
57.9192
59.005
60.0919
61.1798
62.2685
63.3581
64.4483
65.5393
66.6308
67.7234
68.816
69.9122
71.003
72.1153
73.1728
74.3926
0.0231294
0.0237817
0.024443
0.0250763
0.0306281
0.851197
1.97132
3.06712
4.11277
5.1347
6.15054
7.1665
8.18384
9.2034
10.2255
11.2504
12.2782
13.3089
14.3425
15.379
16.4185
17.4618
18.5098
19.5626
20.6199
21.6816
22.7475
23.8172
24.8911
25.9652
27.0253
28.0746
29.125
30.1746
31.2248
32.2757
33.3274
34.3802
35.4343
36.4897
37.5465
38.6049
39.6648
40.7264
41.7895
42.8542
43.9206
44.9885
46.0581
47.1292
48.2019
49.2761
50.3518
51.4289
52.5074
53.5872
54.6684
55.7508
56.8344
57.9192
59.005
60.0919
61.1798
62.2685
63.3581
64.4483
65.5393
66.6308
67.7234
68.816
69.9122
71.003
72.1153
73.1728
74.3926
)
;
    }
}


// ************************************************************************* //
