/*--------------------------------*- C++ -*----------------------------------*\
| =========                 |                                                 |
| \\      /  F ield         | OpenFOAM: The Open Source CFD Toolbox           |
|  \\    /   O peration     | Version:  2406                                  |
|   \\  /    A nd           | Website:  www.openfoam.com                      |
|    \\/     M anipulation  |                                                 |
\*---------------------------------------------------------------------------*/
FoamFile
{
    version     2.0;
    format      ascii;
    arch        "LSB;label=32;scalar=64";
    class       volScalarField;
    location    "30/fluidRegion";
    object      dgdt.vapour;
}
// * * * * * * * * * * * * * * * * * * * * * * * * * * * * * * * * * * * * * //

dimensions      [0 0 -1 0 0 0 0];

internalField   nonuniform List<scalar> 
75
(
0.00107304
0.00113861
0.00117005
0.0012006
0.00130594
1.67808
1.7427
1.79242
1.69643
1.6745
1.66761
1.66564
1.66598
1.6676
1.67003
1.67298
1.67629
1.67983
1.68353
1.68731
1.69115
1.69747
1.7048
1.71192
1.71879
1.72539
1.7317
1.7377
1.74339
1.74875
1.73708
1.71564
1.70804
1.70505
1.70423
1.70463
1.70578
1.70744
1.70944
1.71167
1.71407
1.71658
1.71917
1.7218
1.72445
1.72712
1.72977
1.73241
1.73501
1.73758
1.74011
1.74258
1.745
1.74735
1.74964
1.75186
1.754
1.75609
1.7581
1.76005
1.76194
1.76378
1.76556
1.76729
1.76896
1.77058
1.77214
1.77364
1.77508
1.77646
1.77776
1.77907
1.78011
1.7817
1.78446
)
;

boundaryField
{
    inlet
    {
        type            calculated;
        value           uniform 0.00107304;
    }
    outlet
    {
        type            calculated;
        value           uniform 1.78446;
    }
    fixedWalls
    {
        type            calculated;
        value           nonuniform List<scalar> 
300
(
0.00107304
0.00113861
0.00117005
0.0012006
0.00130594
1.67808
1.7427
1.79242
1.69643
1.6745
1.66761
1.66564
1.66598
1.6676
1.67003
1.67298
1.67629
1.67983
1.68353
1.68731
1.69115
1.69747
1.7048
1.71192
1.71879
1.72539
1.7317
1.7377
1.74339
1.74875
1.73708
1.71564
1.70804
1.70505
1.70423
1.70463
1.70578
1.70744
1.70944
1.71167
1.71407
1.71658
1.71917
1.7218
1.72445
1.72712
1.72977
1.73241
1.73501
1.73758
1.74011
1.74258
1.745
1.74735
1.74964
1.75186
1.754
1.75609
1.7581
1.76005
1.76194
1.76378
1.76556
1.76729
1.76896
1.77058
1.77214
1.77364
1.77508
1.77646
1.77776
1.77907
1.78011
1.7817
1.78446
0.00107304
0.00113861
0.00117005
0.0012006
0.00130594
1.67808
1.7427
1.79242
1.69643
1.6745
1.66761
1.66564
1.66598
1.6676
1.67003
1.67298
1.67629
1.67983
1.68353
1.68731
1.69115
1.69747
1.7048
1.71192
1.71879
1.72539
1.7317
1.7377
1.74339
1.74875
1.73708
1.71564
1.70804
1.70505
1.70423
1.70463
1.70578
1.70744
1.70944
1.71167
1.71407
1.71658
1.71917
1.7218
1.72445
1.72712
1.72977
1.73241
1.73501
1.73758
1.74011
1.74258
1.745
1.74735
1.74964
1.75186
1.754
1.75609
1.7581
1.76005
1.76194
1.76378
1.76556
1.76729
1.76896
1.77058
1.77214
1.77364
1.77508
1.77646
1.77776
1.77907
1.78011
1.7817
1.78446
0.00107304
0.00113861
0.00117005
0.0012006
0.00130594
1.67808
1.7427
1.79242
1.69643
1.6745
1.66761
1.66564
1.66598
1.6676
1.67003
1.67298
1.67629
1.67983
1.68353
1.68731
1.69115
1.69747
1.7048
1.71192
1.71879
1.72539
1.7317
1.7377
1.74339
1.74875
1.73708
1.71564
1.70804
1.70505
1.70423
1.70463
1.70578
1.70744
1.70944
1.71167
1.71407
1.71658
1.71917
1.7218
1.72445
1.72712
1.72977
1.73241
1.73501
1.73758
1.74011
1.74258
1.745
1.74735
1.74964
1.75186
1.754
1.75609
1.7581
1.76005
1.76194
1.76378
1.76556
1.76729
1.76896
1.77058
1.77214
1.77364
1.77508
1.77646
1.77776
1.77907
1.78011
1.7817
1.78446
0.00107304
0.00113861
0.00117005
0.0012006
0.00130594
1.67808
1.7427
1.79242
1.69643
1.6745
1.66761
1.66564
1.66598
1.6676
1.67003
1.67298
1.67629
1.67983
1.68353
1.68731
1.69115
1.69747
1.7048
1.71192
1.71879
1.72539
1.7317
1.7377
1.74339
1.74875
1.73708
1.71564
1.70804
1.70505
1.70423
1.70463
1.70578
1.70744
1.70944
1.71167
1.71407
1.71658
1.71917
1.7218
1.72445
1.72712
1.72977
1.73241
1.73501
1.73758
1.74011
1.74258
1.745
1.74735
1.74964
1.75186
1.754
1.75609
1.7581
1.76005
1.76194
1.76378
1.76556
1.76729
1.76896
1.77058
1.77214
1.77364
1.77508
1.77646
1.77776
1.77907
1.78011
1.7817
1.78446
)
;
    }
}


// ************************************************************************* //
