/*--------------------------------*- C++ -*----------------------------------*\
| =========                 |                                                 |
| \\      /  F ield         | OpenFOAM: The Open Source CFD Toolbox           |
|  \\    /   O peration     | Version:  2406                                  |
|   \\  /    A nd           | Website:  www.openfoam.com                      |
|    \\/     M anipulation  |                                                 |
\*---------------------------------------------------------------------------*/
FoamFile
{
    version     2.0;
    format      ascii;
    arch        "LSB;label=32;scalar=64";
    class       volTensorField;
    location    "30/fluidRegion";
    object      Kd.liquid.structure;
}
// * * * * * * * * * * * * * * * * * * * * * * * * * * * * * * * * * * * * * //

dimensions      [1 -3 -1 0 0 0 0];

internalField   nonuniform List<tensor> 
75
(
(223.016 0 0 0 223.016 0 0 0 223.016)
(223.17 0 0 0 223.17 0 0 0 223.17)
(223.326 0 0 0 223.326 0 0 0 223.326)
(223.476 0 0 0 223.476 0 0 0 223.476)
(224.597 0 0 0 224.597 0 0 0 224.597)
(351.449 0 0 0 351.449 0 0 0 351.449)
(499.701 0 0 0 499.701 0 0 0 499.701)
(621.678 0 0 0 621.678 0 0 0 621.678)
(725.289 0 0 0 725.289 0 0 0 725.289)
(817.251 0 0 0 817.251 0 0 0 817.251)
(901.968 0 0 0 901.968 0 0 0 901.968)
(981.447 0 0 0 981.447 0 0 0 981.447)
(1056.75 0 0 0 1056.75 0 0 0 1056.75)
(1128.65 0 0 0 1128.65 0 0 0 1128.65)
(1197.69 0 0 0 1197.69 0 0 0 1197.69)
(1264.3 0 0 0 1264.3 0 0 0 1264.3)
(1328.8 0 0 0 1328.8 0 0 0 1328.8)
(1391.46 0 0 0 1391.46 0 0 0 1391.46)
(1452.51 0 0 0 1452.51 0 0 0 1452.51)
(1512.11 0 0 0 1512.11 0 0 0 1512.11)
(1570.42 0 0 0 1570.42 0 0 0 1570.42)
(1627.62 0 0 0 1627.62 0 0 0 1627.62)
(1683.86 0 0 0 1683.86 0 0 0 1683.86)
(1739.24 0 0 0 1739.24 0 0 0 1739.24)
(1793.84 0 0 0 1793.84 0 0 0 1793.84)
(1847.72 0 0 0 1847.72 0 0 0 1847.72)
(1900.95 0 0 0 1900.95 0 0 0 1900.95)
(1953.57 0 0 0 1953.57 0 0 0 1953.57)
(2005.61 0 0 0 2005.61 0 0 0 2005.61)
(2057.31 0 0 0 2057.31 0 0 0 2057.31)
(2122.29 0 0 0 2122.29 0 0 0 2122.29)
(2215.92 0 0 0 2215.92 0 0 0 2215.92)
(2310.1 0 0 0 2310.1 0 0 0 2310.1)
(2404.89 0 0 0 2404.89 0 0 0 2404.89)
(2500.6 0 0 0 2500.6 0 0 0 2500.6)
(2597.32 0 0 0 2597.32 0 0 0 2597.32)
(2695.12 0 0 0 2695.12 0 0 0 2695.12)
(2794.04 0 0 0 2794.04 0 0 0 2794.04)
(2894.13 0 0 0 2894.13 0 0 0 2894.13)
(2995.4 0 0 0 2995.4 0 0 0 2995.4)
(3097.88 0 0 0 3097.88 0 0 0 3097.88)
(3201.59 0 0 0 3201.59 0 0 0 3201.59)
(3306.54 0 0 0 3306.54 0 0 0 3306.54)
(3412.74 0 0 0 3412.74 0 0 0 3412.74)
(3520.22 0 0 0 3520.22 0 0 0 3520.22)
(3628.98 0 0 0 3628.98 0 0 0 3628.98)
(3739.04 0 0 0 3739.04 0 0 0 3739.04)
(3850.42 0 0 0 3850.42 0 0 0 3850.42)
(3963.13 0 0 0 3963.13 0 0 0 3963.13)
(4077.19 0 0 0 4077.19 0 0 0 4077.19)
(4192.61 0 0 0 4192.61 0 0 0 4192.61)
(4309.42 0 0 0 4309.42 0 0 0 4309.42)
(4427.62 0 0 0 4427.62 0 0 0 4427.62)
(4547.23 0 0 0 4547.23 0 0 0 4547.23)
(4668.27 0 0 0 4668.27 0 0 0 4668.27)
(4790.76 0 0 0 4790.76 0 0 0 4790.76)
(4914.7 0 0 0 4914.7 0 0 0 4914.7)
(5040.12 0 0 0 5040.12 0 0 0 5040.12)
(5167.03 0 0 0 5167.03 0 0 0 5167.03)
(5295.45 0 0 0 5295.45 0 0 0 5295.45)
(5425.4 0 0 0 5425.4 0 0 0 5425.4)
(5556.87 0 0 0 5556.87 0 0 0 5556.87)
(5689.89 0 0 0 5689.89 0 0 0 5689.89)
(5824.44 0 0 0 5824.44 0 0 0 5824.44)
(5960.51 0 0 0 5960.51 0 0 0 5960.51)
(6098.1 0 0 0 6098.1 0 0 0 6098.1)
(6237.23 0 0 0 6237.23 0 0 0 6237.23)
(6377.86 0 0 0 6377.86 0 0 0 6377.86)
(6520.25 0 0 0 6520.25 0 0 0 6520.25)
(6664.06 0 0 0 6664.06 0 0 0 6664.06)
(6810.79 0 0 0 6810.79 0 0 0 6810.79)
(6956.96 0 0 0 6956.96 0 0 0 6956.96)
(7113.83 0 0 0 7113.83 0 0 0 7113.83)
(7249.57 0 0 0 7249.57 0 0 0 7249.57)
(7456.59 0 0 0 7456.59 0 0 0 7456.59)
)
;

boundaryField
{
    inlet
    {
        type            zeroGradient;
    }
    outlet
    {
        type            zeroGradient;
    }
    fixedWalls
    {
        type            zeroGradient;
    }
}


// ************************************************************************* //
