/*--------------------------------*- C++ -*----------------------------------*\
| =========                 |                                                 |
| \\      /  F ield         | OpenFOAM: The Open Source CFD Toolbox           |
|  \\    /   O peration     | Version:  2406                                  |
|   \\  /    A nd           | Website:  www.openfoam.com                      |
|    \\/     M anipulation  |                                                 |
\*---------------------------------------------------------------------------*/
FoamFile
{
    version     2.0;
    format      ascii;
    arch        "LSB;label=32;scalar=64";
    class       volTensorField;
    location    "30/fluidRegion";
    object      KdTotU;
}
// * * * * * * * * * * * * * * * * * * * * * * * * * * * * * * * * * * * * * //

dimensions      [1 -2 -2 0 0 0 0];

internalField   nonuniform List<tensor> 
75
(
(126.653 0 0 0 126.653 0 0 0 126.653)
(126.746 0 0 0 126.746 0 0 0 126.746)
(126.84 0 0 0 126.84 0 0 0 126.84)
(126.931 0 0 0 126.931 0 0 0 126.931)
(127.626 0 0 0 127.626 0 0 0 127.626)
(207.084 0 0 0 207.084 0 0 0 207.084)
(313.073 0 0 0 313.073 0 0 0 313.073)
(409.289 0 0 0 409.289 0 0 0 409.289)
(498.268 0 0 0 498.268 0 0 0 498.268)
(582.321 0 0 0 582.321 0 0 0 582.321)
(663.812 0 0 0 663.812 0 0 0 663.812)
(743.549 0 0 0 743.549 0 0 0 743.549)
(821.854 0 0 0 821.854 0 0 0 821.854)
(898.939 0 0 0 898.939 0 0 0 898.939)
(974.941 0 0 0 974.941 0 0 0 974.941)
(1049.96 0 0 0 1049.96 0 0 0 1049.96)
(1124.08 0 0 0 1124.08 0 0 0 1124.08)
(1197.35 0 0 0 1197.35 0 0 0 1197.35)
(1269.82 0 0 0 1269.82 0 0 0 1269.82)
(1341.53 0 0 0 1341.53 0 0 0 1341.53)
(1412.52 0 0 0 1412.52 0 0 0 1412.52)
(1482.86 0 0 0 1482.86 0 0 0 1482.86)
(1552.63 0 0 0 1552.63 0 0 0 1552.63)
(1621.87 0 0 0 1621.87 0 0 0 1621.87)
(1690.59 0 0 0 1690.59 0 0 0 1690.59)
(1758.77 0 0 0 1758.77 0 0 0 1758.77)
(1826.42 0 0 0 1826.42 0 0 0 1826.42)
(1893.54 0 0 0 1893.54 0 0 0 1893.54)
(1960.12 0 0 0 1960.12 0 0 0 1960.12)
(2026.15 0 0 0 2026.15 0 0 0 2026.15)
(2103.94 0 0 0 2103.94 0 0 0 2103.94)
(2207.97 0 0 0 2207.97 0 0 0 2207.97)
(2311.01 0 0 0 2311.01 0 0 0 2311.01)
(2413.85 0 0 0 2413.85 0 0 0 2413.85)
(2517 0 0 0 2517 0 0 0 2517)
(2620.66 0 0 0 2620.66 0 0 0 2620.66)
(2724.95 0 0 0 2724.95 0 0 0 2724.95)
(2829.89 0 0 0 2829.89 0 0 0 2829.89)
(2935.5 0 0 0 2935.5 0 0 0 2935.5)
(3041.74 0 0 0 3041.74 0 0 0 3041.74)
(3148.61 0 0 0 3148.61 0 0 0 3148.61)
(3256.07 0 0 0 3256.07 0 0 0 3256.07)
(3364.1 0 0 0 3364.1 0 0 0 3364.1)
(3472.67 0 0 0 3472.67 0 0 0 3472.67)
(3581.73 0 0 0 3581.73 0 0 0 3581.73)
(3691.26 0 0 0 3691.26 0 0 0 3691.26)
(3801.23 0 0 0 3801.23 0 0 0 3801.23)
(3911.61 0 0 0 3911.61 0 0 0 3911.61)
(4022.35 0 0 0 4022.35 0 0 0 4022.35)
(4133.43 0 0 0 4133.43 0 0 0 4133.43)
(4244.82 0 0 0 4244.82 0 0 0 4244.82)
(4356.48 0 0 0 4356.48 0 0 0 4356.48)
(4468.38 0 0 0 4468.38 0 0 0 4468.38)
(4580.48 0 0 0 4580.48 0 0 0 4580.48)
(4692.76 0 0 0 4692.76 0 0 0 4692.76)
(4805.19 0 0 0 4805.19 0 0 0 4805.19)
(4917.73 0 0 0 4917.73 0 0 0 4917.73)
(5030.36 0 0 0 5030.36 0 0 0 5030.36)
(5143.05 0 0 0 5143.05 0 0 0 5143.05)
(5255.78 0 0 0 5255.78 0 0 0 5255.78)
(5368.52 0 0 0 5368.52 0 0 0 5368.52)
(5481.25 0 0 0 5481.25 0 0 0 5481.25)
(5593.95 0 0 0 5593.95 0 0 0 5593.95)
(5706.61 0 0 0 5706.61 0 0 0 5706.61)
(5819.22 0 0 0 5819.22 0 0 0 5819.22)
(5931.78 0 0 0 5931.78 0 0 0 5931.78)
(6044.31 0 0 0 6044.31 0 0 0 6044.31)
(6156.74 0 0 0 6156.74 0 0 0 6156.74)
(6269.22 0 0 0 6269.22 0 0 0 6269.22)
(6381.17 0 0 0 6381.17 0 0 0 6381.17)
(6493.97 0 0 0 6493.97 0 0 0 6493.97)
(6603.18 0 0 0 6603.18 0 0 0 6603.18)
(6721.08 0 0 0 6721.08 0 0 0 6721.08)
(6811.75 0 0 0 6811.75 0 0 0 6811.75)
(6975.94 0 0 0 6975.94 0 0 0 6975.94)
)
;

boundaryField
{
    inlet
    {
        type            zeroGradient;
    }
    outlet
    {
        type            zeroGradient;
    }
    fixedWalls
    {
        type            zeroGradient;
    }
}


// ************************************************************************* //
