/*--------------------------------*- C++ -*----------------------------------*\
| =========                 |                                                 |
| \\      /  F ield         | OpenFOAM: The Open Source CFD Toolbox           |
|  \\    /   O peration     | Version:  2406                                  |
|   \\  /    A nd           | Website:  www.openfoam.com                      |
|    \\/     M anipulation  |                                                 |
\*---------------------------------------------------------------------------*/
FoamFile
{
    version     2.0;
    format      ascii;
    arch        "LSB;label=32;scalar=64";
    class       volScalarField;
    location    "30/fluidRegion";
    object      p_rgh;
}
// * * * * * * * * * * * * * * * * * * * * * * * * * * * * * * * * * * * * * //

dimensions      [1 -1 -2 0 0 0 0];

internalField   nonuniform List<scalar> 
75
(
7.21151e+06
7.2115e+06
7.2115e+06
7.21149e+06
7.21149e+06
7.21148e+06
7.21146e+06
7.21142e+06
7.21139e+06
7.21135e+06
7.21131e+06
7.21127e+06
7.21122e+06
7.21117e+06
7.21112e+06
7.21106e+06
7.211e+06
7.21094e+06
7.21087e+06
7.2108e+06
7.21073e+06
7.21065e+06
7.21057e+06
7.21049e+06
7.21041e+06
7.21032e+06
7.21023e+06
7.21013e+06
7.21003e+06
7.20993e+06
7.20983e+06
7.20972e+06
7.2096e+06
7.20949e+06
7.20936e+06
7.20923e+06
7.2091e+06
7.20896e+06
7.20882e+06
7.20867e+06
7.20852e+06
7.20836e+06
7.2082e+06
7.20803e+06
7.20786e+06
7.20768e+06
7.2075e+06
7.20731e+06
7.20711e+06
7.20692e+06
7.20671e+06
7.2065e+06
7.20628e+06
7.20606e+06
7.20584e+06
7.20561e+06
7.20537e+06
7.20513e+06
7.20488e+06
7.20462e+06
7.20437e+06
7.2041e+06
7.20383e+06
7.20356e+06
7.20328e+06
7.20299e+06
7.2027e+06
7.2024e+06
7.2021e+06
7.20179e+06
7.20148e+06
7.20116e+06
7.20084e+06
7.20051e+06
7.20017e+06
)
;

boundaryField
{
    inlet
    {
        type            fixedFluxPressure;
        gradient        uniform 250.77;
        value           uniform 7.21151e+06;
    }
    outlet
    {
        type            fixedValue;
        value           uniform 7.2e+06;
    }
    fixedWalls
    {
        type            fixedFluxPressure;
        gradient        nonuniform List<scalar> 
300
(
0
0
-2.20162e-17
-2.40401e-17
2.06826e-17
9.46118e-17
-1.13134e-17
-4.82009e-17
0
0
0
0
0
0
0
0
0
0
0
0
0
0
0
0
0
0
0
0
0
0
0
0
0
0
0
0
0
0
0
0
0
0
0
0
0
0
0
0
0
2.54378e-16
-1.20183e-17
-2.52556e-16
0
0
0
0
5.07808e-16
-1.17477e-17
-5.04884e-16
0
0
0
0
0
5.08641e-16
-1.1507e-17
-5.06299e-16
0
0
0
0
5.12343e-16
-1.13344e-17
-5.10558e-16
0
0
0
2.20162e-17
2.40401e-17
-2.06826e-17
-9.46118e-17
1.13134e-17
4.82009e-17
0
0
0
0
0
0
0
0
0
0
0
0
0
0
0
0
0
0
0
0
0
0
0
0
0
0
0
0
0
0
0
0
0
0
0
0
0
0
0
0
0
-2.54378e-16
1.20183e-17
2.52556e-16
0
0
0
0
-5.07808e-16
1.17477e-17
5.04884e-16
0
0
0
0
0
-5.08641e-16
1.1507e-17
5.06299e-16
0
0
0
0
-5.12343e-16
1.13344e-17
5.10558e-16
0
0
0
-2.20162e-17
-2.40401e-17
2.06826e-17
9.46118e-17
-1.13134e-17
-4.82009e-17
0
0
0
0
0
0
0
0
0
0
0
0
0
0
0
0
0
0
0
0
0
0
0
0
0
0
0
0
0
0
0
0
0
0
0
0
0
0
0
0
0
2.54378e-16
-1.20183e-17
-2.52556e-16
0
0
0
0
5.07808e-16
-1.17477e-17
-5.04884e-16
0
0
0
0
0
5.08641e-16
-1.1507e-17
-5.06299e-16
0
0
0
0
5.12343e-16
-1.13344e-17
-5.10558e-16
0
0
0
2.20162e-17
2.40401e-17
-2.06826e-17
-9.46118e-17
1.13134e-17
4.82009e-17
0
0
0
0
0
0
0
0
0
0
0
0
0
0
0
0
0
0
0
0
0
0
0
0
0
0
0
0
0
0
0
0
0
0
0
0
0
0
0
0
0
-2.54378e-16
1.20183e-17
2.52556e-16
0
0
0
0
-5.07808e-16
1.17477e-17
5.04884e-16
0
0
0
0
0
-5.08641e-16
1.1507e-17
5.06299e-16
0
0
0
0
-5.12343e-16
1.13344e-17
5.10558e-16
0
)
;
        value           nonuniform List<scalar> 
300
(
7.21151e+06
7.2115e+06
7.2115e+06
7.21149e+06
7.21149e+06
7.21148e+06
7.21146e+06
7.21142e+06
7.21139e+06
7.21135e+06
7.21131e+06
7.21127e+06
7.21122e+06
7.21117e+06
7.21112e+06
7.21106e+06
7.211e+06
7.21094e+06
7.21087e+06
7.2108e+06
7.21073e+06
7.21065e+06
7.21057e+06
7.21049e+06
7.21041e+06
7.21032e+06
7.21023e+06
7.21013e+06
7.21003e+06
7.20993e+06
7.20983e+06
7.20972e+06
7.2096e+06
7.20949e+06
7.20936e+06
7.20923e+06
7.2091e+06
7.20896e+06
7.20882e+06
7.20867e+06
7.20852e+06
7.20836e+06
7.2082e+06
7.20803e+06
7.20786e+06
7.20768e+06
7.2075e+06
7.20731e+06
7.20711e+06
7.20692e+06
7.20671e+06
7.2065e+06
7.20628e+06
7.20606e+06
7.20584e+06
7.20561e+06
7.20537e+06
7.20513e+06
7.20488e+06
7.20462e+06
7.20437e+06
7.2041e+06
7.20383e+06
7.20356e+06
7.20328e+06
7.20299e+06
7.2027e+06
7.2024e+06
7.2021e+06
7.20179e+06
7.20148e+06
7.20116e+06
7.20084e+06
7.20051e+06
7.20017e+06
7.21151e+06
7.2115e+06
7.2115e+06
7.21149e+06
7.21149e+06
7.21148e+06
7.21146e+06
7.21142e+06
7.21139e+06
7.21135e+06
7.21131e+06
7.21127e+06
7.21122e+06
7.21117e+06
7.21112e+06
7.21106e+06
7.211e+06
7.21094e+06
7.21087e+06
7.2108e+06
7.21073e+06
7.21065e+06
7.21057e+06
7.21049e+06
7.21041e+06
7.21032e+06
7.21023e+06
7.21013e+06
7.21003e+06
7.20993e+06
7.20983e+06
7.20972e+06
7.2096e+06
7.20949e+06
7.20936e+06
7.20923e+06
7.2091e+06
7.20896e+06
7.20882e+06
7.20867e+06
7.20852e+06
7.20836e+06
7.2082e+06
7.20803e+06
7.20786e+06
7.20768e+06
7.2075e+06
7.20731e+06
7.20711e+06
7.20692e+06
7.20671e+06
7.2065e+06
7.20628e+06
7.20606e+06
7.20584e+06
7.20561e+06
7.20537e+06
7.20513e+06
7.20488e+06
7.20462e+06
7.20437e+06
7.2041e+06
7.20383e+06
7.20356e+06
7.20328e+06
7.20299e+06
7.2027e+06
7.2024e+06
7.2021e+06
7.20179e+06
7.20148e+06
7.20116e+06
7.20084e+06
7.20051e+06
7.20017e+06
7.21151e+06
7.2115e+06
7.2115e+06
7.21149e+06
7.21149e+06
7.21148e+06
7.21146e+06
7.21142e+06
7.21139e+06
7.21135e+06
7.21131e+06
7.21127e+06
7.21122e+06
7.21117e+06
7.21112e+06
7.21106e+06
7.211e+06
7.21094e+06
7.21087e+06
7.2108e+06
7.21073e+06
7.21065e+06
7.21057e+06
7.21049e+06
7.21041e+06
7.21032e+06
7.21023e+06
7.21013e+06
7.21003e+06
7.20993e+06
7.20983e+06
7.20972e+06
7.2096e+06
7.20949e+06
7.20936e+06
7.20923e+06
7.2091e+06
7.20896e+06
7.20882e+06
7.20867e+06
7.20852e+06
7.20836e+06
7.2082e+06
7.20803e+06
7.20786e+06
7.20768e+06
7.2075e+06
7.20731e+06
7.20711e+06
7.20692e+06
7.20671e+06
7.2065e+06
7.20628e+06
7.20606e+06
7.20584e+06
7.20561e+06
7.20537e+06
7.20513e+06
7.20488e+06
7.20462e+06
7.20437e+06
7.2041e+06
7.20383e+06
7.20356e+06
7.20328e+06
7.20299e+06
7.2027e+06
7.2024e+06
7.2021e+06
7.20179e+06
7.20148e+06
7.20116e+06
7.20084e+06
7.20051e+06
7.20017e+06
7.21151e+06
7.2115e+06
7.2115e+06
7.21149e+06
7.21149e+06
7.21148e+06
7.21146e+06
7.21142e+06
7.21139e+06
7.21135e+06
7.21131e+06
7.21127e+06
7.21122e+06
7.21117e+06
7.21112e+06
7.21106e+06
7.211e+06
7.21094e+06
7.21087e+06
7.2108e+06
7.21073e+06
7.21065e+06
7.21057e+06
7.21049e+06
7.21041e+06
7.21032e+06
7.21023e+06
7.21013e+06
7.21003e+06
7.20993e+06
7.20983e+06
7.20972e+06
7.2096e+06
7.20949e+06
7.20936e+06
7.20923e+06
7.2091e+06
7.20896e+06
7.20882e+06
7.20867e+06
7.20852e+06
7.20836e+06
7.2082e+06
7.20803e+06
7.20786e+06
7.20768e+06
7.2075e+06
7.20731e+06
7.20711e+06
7.20692e+06
7.20671e+06
7.2065e+06
7.20628e+06
7.20606e+06
7.20584e+06
7.20561e+06
7.20537e+06
7.20513e+06
7.20488e+06
7.20462e+06
7.20437e+06
7.2041e+06
7.20383e+06
7.20356e+06
7.20328e+06
7.20299e+06
7.2027e+06
7.2024e+06
7.2021e+06
7.20179e+06
7.20148e+06
7.20116e+06
7.20084e+06
7.20051e+06
7.20017e+06
)
;
    }
}


// ************************************************************************* //
