/*--------------------------------*- C++ -*----------------------------------*\
| =========                 |                                                 |
| \\      /  F ield         | OpenFOAM: The Open Source CFD Toolbox           |
|  \\    /   O peration     | Version:  2406                                  |
|   \\  /    A nd           | Website:  www.openfoam.com                      |
|    \\/     M anipulation  |                                                 |
\*---------------------------------------------------------------------------*/
FoamFile
{
    version     2.0;
    format      ascii;
    arch        "LSB;label=32;scalar=64";
    class       volScalarField;
    location    "30/fluidRegion";
    object      dgdt.vapour;
}
// * * * * * * * * * * * * * * * * * * * * * * * * * * * * * * * * * * * * * //

dimensions      [0 0 -1 0 0 0 0];

internalField   nonuniform List<scalar> 
70
(
-0
-0
-0
-0
-0
-0
-0
-0
-0
-0
-0
-0
-0
-0
-0
-0
0.0612784
0.124949
0.182705
0.238391
0.29474
0.353754
0.416869
0.4851
0.559099
0.63914
0.725091
0.816368
0.91191
1.01019
1.10928
1.20699
1.30101
1.39007
1.44557
1.46613
1.47951
1.49003
1.49919
1.50762
1.51561
1.52331
1.53078
1.53807
1.54521
1.55221
1.55907
1.56579
1.57238
1.57883
1.58515
1.59134
1.59739
1.6033
1.60908
1.61473
1.62024
1.62562
1.63087
1.63599
1.64098
1.64585
1.65059
1.65522
1.66122
1.66898
1.67655
1.68391
1.69108
1.69967
)
;

boundaryField
{
    inlet
    {
        type            calculated;
        value           uniform -0;
    }
    outlet
    {
        type            calculated;
        value           uniform 1.69967;
    }
    fixedWalls
    {
        type            calculated;
        value           nonuniform List<scalar> 
280
(
-0
-0
-0
-0
-0
-0
-0
-0
-0
-0
-0
-0
-0
-0
-0
-0
0.0612784
0.124949
0.182705
0.238391
0.29474
0.353754
0.416869
0.4851
0.559099
0.63914
0.725091
0.816368
0.91191
1.01019
1.10928
1.20699
1.30101
1.39007
1.44557
1.46613
1.47951
1.49003
1.49919
1.50762
1.51561
1.52331
1.53078
1.53807
1.54521
1.55221
1.55907
1.56579
1.57238
1.57883
1.58515
1.59134
1.59739
1.6033
1.60908
1.61473
1.62024
1.62562
1.63087
1.63599
1.64098
1.64585
1.65059
1.65522
1.66122
1.66898
1.67655
1.68391
1.69108
1.69967
-0
-0
-0
-0
-0
-0
-0
-0
-0
-0
-0
-0
-0
-0
-0
-0
0.0612784
0.124949
0.182705
0.238391
0.29474
0.353754
0.416869
0.4851
0.559099
0.63914
0.725091
0.816368
0.91191
1.01019
1.10928
1.20699
1.30101
1.39007
1.44557
1.46613
1.47951
1.49003
1.49919
1.50762
1.51561
1.52331
1.53078
1.53807
1.54521
1.55221
1.55907
1.56579
1.57238
1.57883
1.58515
1.59134
1.59739
1.6033
1.60908
1.61473
1.62024
1.62562
1.63087
1.63599
1.64098
1.64585
1.65059
1.65522
1.66122
1.66898
1.67655
1.68391
1.69108
1.69967
-0
-0
-0
-0
-0
-0
-0
-0
-0
-0
-0
-0
-0
-0
-0
-0
0.0612784
0.124949
0.182705
0.238391
0.29474
0.353754
0.416869
0.4851
0.559099
0.63914
0.725091
0.816368
0.91191
1.01019
1.10928
1.20699
1.30101
1.39007
1.44557
1.46613
1.47951
1.49003
1.49919
1.50762
1.51561
1.52331
1.53078
1.53807
1.54521
1.55221
1.55907
1.56579
1.57238
1.57883
1.58515
1.59134
1.59739
1.6033
1.60908
1.61473
1.62024
1.62562
1.63087
1.63599
1.64098
1.64585
1.65059
1.65522
1.66122
1.66898
1.67655
1.68391
1.69108
1.69967
-0
-0
-0
-0
-0
-0
-0
-0
-0
-0
-0
-0
-0
-0
-0
-0
0.0612784
0.124949
0.182705
0.238391
0.29474
0.353754
0.416869
0.4851
0.559099
0.63914
0.725091
0.816368
0.91191
1.01019
1.10928
1.20699
1.30101
1.39007
1.44557
1.46613
1.47951
1.49003
1.49919
1.50762
1.51561
1.52331
1.53078
1.53807
1.54521
1.55221
1.55907
1.56579
1.57238
1.57883
1.58515
1.59134
1.59739
1.6033
1.60908
1.61473
1.62024
1.62562
1.63087
1.63599
1.64098
1.64585
1.65059
1.65522
1.66122
1.66898
1.67655
1.68391
1.69108
1.69967
)
;
    }
}


// ************************************************************************* //
