/*--------------------------------*- C++ -*----------------------------------*\
| =========                 |                                                 |
| \\      /  F ield         | OpenFOAM: The Open Source CFD Toolbox           |
|  \\    /   O peration     | Version:  2406                                  |
|   \\  /    A nd           | Website:  www.openfoam.com                      |
|    \\/     M anipulation  |                                                 |
\*---------------------------------------------------------------------------*/
FoamFile
{
    version     2.0;
    format      ascii;
    arch        "LSB;label=32;scalar=64";
    class       volTensorField;
    location    "30/fluidRegion";
    object      KdTotU;
}
// * * * * * * * * * * * * * * * * * * * * * * * * * * * * * * * * * * * * * //

dimensions      [1 -2 -2 0 0 0 0];

internalField   nonuniform List<tensor> 
70
(
(539.083 0 0 0 539.083 0 0 0 539.083)
(538.909 0 0 0 538.909 0 0 0 538.909)
(538.752 0 0 0 538.752 0 0 0 538.752)
(538.613 0 0 0 538.613 0 0 0 538.613)
(538.492 0 0 0 538.492 0 0 0 538.492)
(538.388 0 0 0 538.388 0 0 0 538.388)
(538.3 0 0 0 538.3 0 0 0 538.3)
(538.23 0 0 0 538.23 0 0 0 538.23)
(538.176 0 0 0 538.176 0 0 0 538.176)
(538.139 0 0 0 538.139 0 0 0 538.139)
(538.118 0 0 0 538.118 0 0 0 538.118)
(538.113 0 0 0 538.113 0 0 0 538.113)
(538.124 0 0 0 538.124 0 0 0 538.124)
(538.151 0 0 0 538.151 0 0 0 538.151)
(538.194 0 0 0 538.194 0 0 0 538.194)
(538.252 0 0 0 538.252 0 0 0 538.252)
(548.545 0 0 0 548.545 0 0 0 548.545)
(567.977 0 0 0 567.977 0 0 0 567.977)
(594.48 0 0 0 594.48 0 0 0 594.48)
(627.243 0 0 0 627.243 0 0 0 627.243)
(666.038 0 0 0 666.038 0 0 0 666.038)
(710.919 0 0 0 710.919 0 0 0 710.919)
(762.133 0 0 0 762.133 0 0 0 762.133)
(820.04 0 0 0 820.04 0 0 0 820.04)
(885.063 0 0 0 885.063 0 0 0 885.063)
(957.635 0 0 0 957.635 0 0 0 957.635)
(1038.17 0 0 0 1038.17 0 0 0 1038.17)
(1126.99 0 0 0 1126.99 0 0 0 1126.99)
(1224.34 0 0 0 1224.34 0 0 0 1224.34)
(1330.29 0 0 0 1330.29 0 0 0 1330.29)
(1444.73 0 0 0 1444.73 0 0 0 1444.73)
(1567.36 0 0 0 1567.36 0 0 0 1567.36)
(1697.7 0 0 0 1697.7 0 0 0 1697.7)
(1835.07 0 0 0 1835.07 0 0 0 1835.07)
(1976.97 0 0 0 1976.97 0 0 0 1976.97)
(2120.13 0 0 0 2120.13 0 0 0 2120.13)
(2263.08 0 0 0 2263.08 0 0 0 2263.08)
(2405.53 0 0 0 2405.53 0 0 0 2405.53)
(2547.43 0 0 0 2547.43 0 0 0 2547.43)
(2688.77 0 0 0 2688.77 0 0 0 2688.77)
(2829.59 0 0 0 2829.59 0 0 0 2829.59)
(2969.91 0 0 0 2969.91 0 0 0 2969.91)
(3109.76 0 0 0 3109.76 0 0 0 3109.76)
(3249.17 0 0 0 3249.17 0 0 0 3249.17)
(3388.15 0 0 0 3388.15 0 0 0 3388.15)
(3526.73 0 0 0 3526.73 0 0 0 3526.73)
(3664.92 0 0 0 3664.92 0 0 0 3664.92)
(3802.75 0 0 0 3802.75 0 0 0 3802.75)
(3940.21 0 0 0 3940.21 0 0 0 3940.21)
(4077.32 0 0 0 4077.32 0 0 0 4077.32)
(4214.08 0 0 0 4214.08 0 0 0 4214.08)
(4350.51 0 0 0 4350.51 0 0 0 4350.51)
(4486.6 0 0 0 4486.6 0 0 0 4486.6)
(4622.36 0 0 0 4622.36 0 0 0 4622.36)
(4757.79 0 0 0 4757.79 0 0 0 4757.79)
(4892.9 0 0 0 4892.9 0 0 0 4892.9)
(5027.67 0 0 0 5027.67 0 0 0 5027.67)
(5162.12 0 0 0 5162.12 0 0 0 5162.12)
(5296.24 0 0 0 5296.24 0 0 0 5296.24)
(5430.03 0 0 0 5430.03 0 0 0 5430.03)
(5563.5 0 0 0 5563.5 0 0 0 5563.5)
(5696.63 0 0 0 5696.63 0 0 0 5696.63)
(5829.43 0 0 0 5829.43 0 0 0 5829.43)
(5961.9 0 0 0 5961.9 0 0 0 5961.9)
(6094.1 0 0 0 6094.1 0 0 0 6094.1)
(6226.17 0 0 0 6226.17 0 0 0 6226.17)
(6358.16 0 0 0 6358.16 0 0 0 6358.16)
(6490.05 0 0 0 6490.05 0 0 0 6490.05)
(6621.84 0 0 0 6621.84 0 0 0 6621.84)
(6753.73 0 0 0 6753.73 0 0 0 6753.73)
)
;

boundaryField
{
    inlet
    {
        type            zeroGradient;
    }
    outlet
    {
        type            zeroGradient;
    }
    fixedWalls
    {
        type            zeroGradient;
    }
}


// ************************************************************************* //
