/*--------------------------------*- C++ -*----------------------------------*\
| =========                 |                                                 |
| \\      /  F ield         | OpenFOAM: The Open Source CFD Toolbox           |
|  \\    /   O peration     | Version:  2406                                  |
|   \\  /    A nd           | Website:  www.openfoam.com                      |
|    \\/     M anipulation  |                                                 |
\*---------------------------------------------------------------------------*/
FoamFile
{
    version     2.0;
    format      ascii;
    arch        "LSB;label=32;scalar=64";
    class       volScalarField;
    location    "30/fluidRegion";
    object      p;
}
// * * * * * * * * * * * * * * * * * * * * * * * * * * * * * * * * * * * * * //

dimensions      [1 -1 -2 0 0 0 0];

internalField   nonuniform List<scalar> 
70
(
7.20941e+06
7.20939e+06
7.20937e+06
7.20934e+06
7.20932e+06
7.20929e+06
7.20927e+06
7.20924e+06
7.20922e+06
7.20919e+06
7.20917e+06
7.20915e+06
7.20912e+06
7.2091e+06
7.20907e+06
7.20905e+06
7.20902e+06
7.20899e+06
7.20896e+06
7.20893e+06
7.20889e+06
7.20885e+06
7.20881e+06
7.20877e+06
7.20871e+06
7.20866e+06
7.2086e+06
7.20853e+06
7.20846e+06
7.20838e+06
7.2083e+06
7.20821e+06
7.20811e+06
7.20801e+06
7.2079e+06
7.20778e+06
7.20765e+06
7.20752e+06
7.20738e+06
7.20724e+06
7.20709e+06
7.20694e+06
7.20678e+06
7.20661e+06
7.20644e+06
7.20626e+06
7.20607e+06
7.20588e+06
7.20568e+06
7.20548e+06
7.20527e+06
7.20506e+06
7.20484e+06
7.20461e+06
7.20438e+06
7.20414e+06
7.20389e+06
7.20364e+06
7.20339e+06
7.20312e+06
7.20286e+06
7.20258e+06
7.2023e+06
7.20201e+06
7.20172e+06
7.20142e+06
7.20112e+06
7.20081e+06
7.20049e+06
7.20017e+06
)
;

boundaryField
{
    inlet
    {
        type            calculated;
        value           uniform 7.20943e+06;
    }
    outlet
    {
        type            calculated;
        value           uniform 7.2e+06;
    }
    fixedWalls
    {
        type            calculated;
        value           nonuniform List<scalar> 
280
(
7.20941e+06
7.20939e+06
7.20937e+06
7.20934e+06
7.20932e+06
7.20929e+06
7.20927e+06
7.20924e+06
7.20922e+06
7.20919e+06
7.20917e+06
7.20915e+06
7.20912e+06
7.2091e+06
7.20907e+06
7.20905e+06
7.20902e+06
7.20899e+06
7.20896e+06
7.20893e+06
7.20889e+06
7.20885e+06
7.20881e+06
7.20877e+06
7.20871e+06
7.20866e+06
7.2086e+06
7.20853e+06
7.20846e+06
7.20838e+06
7.2083e+06
7.20821e+06
7.20811e+06
7.20801e+06
7.2079e+06
7.20778e+06
7.20765e+06
7.20752e+06
7.20738e+06
7.20724e+06
7.20709e+06
7.20694e+06
7.20678e+06
7.20661e+06
7.20644e+06
7.20626e+06
7.20607e+06
7.20588e+06
7.20568e+06
7.20548e+06
7.20527e+06
7.20506e+06
7.20484e+06
7.20461e+06
7.20438e+06
7.20414e+06
7.20389e+06
7.20364e+06
7.20339e+06
7.20312e+06
7.20286e+06
7.20258e+06
7.2023e+06
7.20201e+06
7.20172e+06
7.20142e+06
7.20112e+06
7.20081e+06
7.20049e+06
7.20017e+06
7.20941e+06
7.20939e+06
7.20937e+06
7.20934e+06
7.20932e+06
7.20929e+06
7.20927e+06
7.20924e+06
7.20922e+06
7.20919e+06
7.20917e+06
7.20915e+06
7.20912e+06
7.2091e+06
7.20907e+06
7.20905e+06
7.20902e+06
7.20899e+06
7.20896e+06
7.20893e+06
7.20889e+06
7.20885e+06
7.20881e+06
7.20877e+06
7.20871e+06
7.20866e+06
7.2086e+06
7.20853e+06
7.20846e+06
7.20838e+06
7.2083e+06
7.20821e+06
7.20811e+06
7.20801e+06
7.2079e+06
7.20778e+06
7.20765e+06
7.20752e+06
7.20738e+06
7.20724e+06
7.20709e+06
7.20694e+06
7.20678e+06
7.20661e+06
7.20644e+06
7.20626e+06
7.20607e+06
7.20588e+06
7.20568e+06
7.20548e+06
7.20527e+06
7.20506e+06
7.20484e+06
7.20461e+06
7.20438e+06
7.20414e+06
7.20389e+06
7.20364e+06
7.20339e+06
7.20312e+06
7.20286e+06
7.20258e+06
7.2023e+06
7.20201e+06
7.20172e+06
7.20142e+06
7.20112e+06
7.20081e+06
7.20049e+06
7.20017e+06
7.20941e+06
7.20939e+06
7.20937e+06
7.20934e+06
7.20932e+06
7.20929e+06
7.20927e+06
7.20924e+06
7.20922e+06
7.20919e+06
7.20917e+06
7.20915e+06
7.20912e+06
7.2091e+06
7.20907e+06
7.20905e+06
7.20902e+06
7.20899e+06
7.20896e+06
7.20893e+06
7.20889e+06
7.20885e+06
7.20881e+06
7.20877e+06
7.20871e+06
7.20866e+06
7.2086e+06
7.20853e+06
7.20846e+06
7.20838e+06
7.2083e+06
7.20821e+06
7.20811e+06
7.20801e+06
7.2079e+06
7.20778e+06
7.20765e+06
7.20752e+06
7.20738e+06
7.20724e+06
7.20709e+06
7.20694e+06
7.20678e+06
7.20661e+06
7.20644e+06
7.20626e+06
7.20607e+06
7.20588e+06
7.20568e+06
7.20548e+06
7.20527e+06
7.20506e+06
7.20484e+06
7.20461e+06
7.20438e+06
7.20414e+06
7.20389e+06
7.20364e+06
7.20339e+06
7.20312e+06
7.20286e+06
7.20258e+06
7.2023e+06
7.20201e+06
7.20172e+06
7.20142e+06
7.20112e+06
7.20081e+06
7.20049e+06
7.20017e+06
7.20941e+06
7.20939e+06
7.20937e+06
7.20934e+06
7.20932e+06
7.20929e+06
7.20927e+06
7.20924e+06
7.20922e+06
7.20919e+06
7.20917e+06
7.20915e+06
7.20912e+06
7.2091e+06
7.20907e+06
7.20905e+06
7.20902e+06
7.20899e+06
7.20896e+06
7.20893e+06
7.20889e+06
7.20885e+06
7.20881e+06
7.20877e+06
7.20871e+06
7.20866e+06
7.2086e+06
7.20853e+06
7.20846e+06
7.20838e+06
7.2083e+06
7.20821e+06
7.20811e+06
7.20801e+06
7.2079e+06
7.20778e+06
7.20765e+06
7.20752e+06
7.20738e+06
7.20724e+06
7.20709e+06
7.20694e+06
7.20678e+06
7.20661e+06
7.20644e+06
7.20626e+06
7.20607e+06
7.20588e+06
7.20568e+06
7.20548e+06
7.20527e+06
7.20506e+06
7.20484e+06
7.20461e+06
7.20438e+06
7.20414e+06
7.20389e+06
7.20364e+06
7.20339e+06
7.20312e+06
7.20286e+06
7.20258e+06
7.2023e+06
7.20201e+06
7.20172e+06
7.20142e+06
7.20112e+06
7.20081e+06
7.20049e+06
7.20017e+06
)
;
    }
}


// ************************************************************************* //
