/*--------------------------------*- C++ -*----------------------------------*\
| =========                 |                                                 |
| \\      /  F ield         | OpenFOAM: The Open Source CFD Toolbox           |
|  \\    /   O peration     | Version:  2406                                  |
|   \\  /    A nd           | Website:  www.openfoam.com                      |
|    \\/     M anipulation  |                                                 |
\*---------------------------------------------------------------------------*/
FoamFile
{
    version     2.0;
    format      ascii;
    arch        "LSB;label=32;scalar=64";
    class       volScalarField;
    location    "0.6/fluidRegion";
    object      alphaRhoMagU.vapour;
}
// * * * * * * * * * * * * * * * * * * * * * * * * * * * * * * * * * * * * * //

dimensions      [1 -2 -1 0 0 0 0];

internalField   nonuniform List<scalar> 
70
(
0
0
0.0404883
0.147215
0.297681
0.495075
0.740227
1.03881
1.39782
1.8256
2.33102
2.92291
3.60928
4.39666
5.28943
6.28943
7.39578
8.60602
9.96447
11.455
13.009
14.5947
16.1991
17.8138
19.4284
21.0406
22.6502
24.2567
25.86
27.4594
29.0546
30.645
32.23
33.809
35.3817
36.9476
38.5066
40.0585
41.6033
43.1407
44.6708
46.193
47.707
49.2128
50.7101
52.199
53.6801
55.1538
56.6204
58.0802
59.5331
60.979
62.4175
63.8485
65.2715
66.6862
68.0925
69.4906
70.881
72.2643
73.6413
75.0129
76.3795
77.7415
79.0989
80.4513
81.7985
83.1384
84.4854
85.6794
)
;

boundaryField
{
    inlet
    {
        type            calculated;
        value           uniform 0;
    }
    outlet
    {
        type            calculated;
        value           uniform 85.6724;
    }
    fixedWalls
    {
        type            calculated;
        value           nonuniform List<scalar> 
280
(
0
0
0.0404883
0.147215
0.297681
0.495075
0.740227
1.03881
1.39782
1.8256
2.33102
2.92291
3.60928
4.39666
5.28943
6.28943
7.39578
8.60602
9.96447
11.455
13.009
14.5947
16.1991
17.8138
19.4284
21.0406
22.6502
24.2567
25.86
27.4594
29.0546
30.645
32.23
33.809
35.3817
36.9476
38.5066
40.0585
41.6033
43.1407
44.6708
46.193
47.707
49.2128
50.7101
52.199
53.6801
55.1538
56.6204
58.0802
59.5331
60.979
62.4175
63.8485
65.2715
66.6862
68.0925
69.4906
70.881
72.2643
73.6413
75.0129
76.3795
77.7415
79.0989
80.4513
81.7985
83.1384
84.4854
85.6794
0
0
0.0404883
0.147215
0.297681
0.495075
0.740227
1.03881
1.39782
1.8256
2.33102
2.92291
3.60928
4.39666
5.28943
6.28943
7.39578
8.60602
9.96447
11.455
13.009
14.5947
16.1991
17.8138
19.4284
21.0406
22.6502
24.2567
25.86
27.4594
29.0546
30.645
32.23
33.809
35.3817
36.9476
38.5066
40.0585
41.6033
43.1407
44.6708
46.193
47.707
49.2128
50.7101
52.199
53.6801
55.1538
56.6204
58.0802
59.5331
60.979
62.4175
63.8485
65.2715
66.6862
68.0925
69.4906
70.881
72.2643
73.6413
75.0129
76.3795
77.7415
79.0989
80.4513
81.7985
83.1384
84.4854
85.6794
0
0
0.0404883
0.147215
0.297681
0.495075
0.740227
1.03881
1.39782
1.8256
2.33102
2.92291
3.60928
4.39666
5.28943
6.28943
7.39578
8.60602
9.96447
11.455
13.009
14.5947
16.1991
17.8138
19.4284
21.0406
22.6502
24.2567
25.86
27.4594
29.0546
30.645
32.23
33.809
35.3817
36.9476
38.5066
40.0585
41.6033
43.1407
44.6708
46.193
47.707
49.2128
50.7101
52.199
53.6801
55.1538
56.6204
58.0802
59.5331
60.979
62.4175
63.8485
65.2715
66.6862
68.0925
69.4906
70.881
72.2643
73.6413
75.0129
76.3795
77.7415
79.0989
80.4513
81.7985
83.1384
84.4854
85.6794
0
0
0.0404883
0.147215
0.297681
0.495075
0.740227
1.03881
1.39782
1.8256
2.33102
2.92291
3.60928
4.39666
5.28943
6.28943
7.39578
8.60602
9.96447
11.455
13.009
14.5947
16.1991
17.8138
19.4284
21.0406
22.6502
24.2567
25.86
27.4594
29.0546
30.645
32.23
33.809
35.3817
36.9476
38.5066
40.0585
41.6033
43.1407
44.6708
46.193
47.707
49.2128
50.7101
52.199
53.6801
55.1538
56.6204
58.0802
59.5331
60.979
62.4175
63.8485
65.2715
66.6862
68.0925
69.4906
70.881
72.2643
73.6413
75.0129
76.3795
77.7415
79.0989
80.4513
81.7985
83.1384
84.4854
85.6794
)
;
    }
}


// ************************************************************************* //
