/*--------------------------------*- C++ -*----------------------------------*\
| =========                 |                                                 |
| \\      /  F ield         | OpenFOAM: The Open Source CFD Toolbox           |
|  \\    /   O peration     | Version:  2406                                  |
|   \\  /    A nd           | Website:  www.openfoam.com                      |
|    \\/     M anipulation  |                                                 |
\*---------------------------------------------------------------------------*/
FoamFile
{
    version     2.0;
    format      ascii;
    arch        "LSB;label=32;scalar=64";
    class       volScalarField;
    location    "0.6/fluidRegion";
    object      dgdt.vapour;
}
// * * * * * * * * * * * * * * * * * * * * * * * * * * * * * * * * * * * * * //

dimensions      [0 0 -1 0 0 0 0];

internalField   nonuniform List<scalar> 
70
(
-0
-0
0.0809076
0.167816
0.24628
0.321362
0.401548
0.49123
0.593898
0.712043
0.847337
1.00047
1.17095
1.35699
1.55543
1.76194
1.9714
2.1783
2.51711
2.74292
2.85295
2.92253
2.97298
3.00211
3.01131
3.01744
3.02185
3.02505
3.02735
3.02896
3.03002
3.03061
3.03081
3.03068
3.03026
3.02961
3.02878
3.02779
3.02665
3.02536
3.02392
3.02235
3.02065
3.01886
3.01697
3.01504
3.01351
3.01237
3.01141
3.01053
3.00968
3.00885
3.00804
3.00767
3.00655
3.00567
3.00485
3.00396
3.003
3.00192
3.00071
2.99936
2.99789
2.9963
2.99461
2.99286
2.99108
2.98931
2.98754
2.99745
)
;

boundaryField
{
    inlet
    {
        type            calculated;
        value           uniform -0;
    }
    outlet
    {
        type            calculated;
        value           uniform 2.99745;
    }
    fixedWalls
    {
        type            calculated;
        value           nonuniform List<scalar> 
280
(
-0
-0
0.0809076
0.167816
0.24628
0.321362
0.401548
0.49123
0.593898
0.712043
0.847337
1.00047
1.17095
1.35699
1.55543
1.76194
1.9714
2.1783
2.51711
2.74292
2.85295
2.92253
2.97298
3.00211
3.01131
3.01744
3.02185
3.02505
3.02735
3.02896
3.03002
3.03061
3.03081
3.03068
3.03026
3.02961
3.02878
3.02779
3.02665
3.02536
3.02392
3.02235
3.02065
3.01886
3.01697
3.01504
3.01351
3.01237
3.01141
3.01053
3.00968
3.00885
3.00804
3.00767
3.00655
3.00567
3.00485
3.00396
3.003
3.00192
3.00071
2.99936
2.99789
2.9963
2.99461
2.99286
2.99108
2.98931
2.98754
2.99745
-0
-0
0.0809076
0.167816
0.24628
0.321362
0.401548
0.49123
0.593898
0.712043
0.847337
1.00047
1.17095
1.35699
1.55543
1.76194
1.9714
2.1783
2.51711
2.74292
2.85295
2.92253
2.97298
3.00211
3.01131
3.01744
3.02185
3.02505
3.02735
3.02896
3.03002
3.03061
3.03081
3.03068
3.03026
3.02961
3.02878
3.02779
3.02665
3.02536
3.02392
3.02235
3.02065
3.01886
3.01697
3.01504
3.01351
3.01237
3.01141
3.01053
3.00968
3.00885
3.00804
3.00767
3.00655
3.00567
3.00485
3.00396
3.003
3.00192
3.00071
2.99936
2.99789
2.9963
2.99461
2.99286
2.99108
2.98931
2.98754
2.99745
-0
-0
0.0809076
0.167816
0.24628
0.321362
0.401548
0.49123
0.593898
0.712043
0.847337
1.00047
1.17095
1.35699
1.55543
1.76194
1.9714
2.1783
2.51711
2.74292
2.85295
2.92253
2.97298
3.00211
3.01131
3.01744
3.02185
3.02505
3.02735
3.02896
3.03002
3.03061
3.03081
3.03068
3.03026
3.02961
3.02878
3.02779
3.02665
3.02536
3.02392
3.02235
3.02065
3.01886
3.01697
3.01504
3.01351
3.01237
3.01141
3.01053
3.00968
3.00885
3.00804
3.00767
3.00655
3.00567
3.00485
3.00396
3.003
3.00192
3.00071
2.99936
2.99789
2.9963
2.99461
2.99286
2.99108
2.98931
2.98754
2.99745
-0
-0
0.0809076
0.167816
0.24628
0.321362
0.401548
0.49123
0.593898
0.712043
0.847337
1.00047
1.17095
1.35699
1.55543
1.76194
1.9714
2.1783
2.51711
2.74292
2.85295
2.92253
2.97298
3.00211
3.01131
3.01744
3.02185
3.02505
3.02735
3.02896
3.03002
3.03061
3.03081
3.03068
3.03026
3.02961
3.02878
3.02779
3.02665
3.02536
3.02392
3.02235
3.02065
3.01886
3.01697
3.01504
3.01351
3.01237
3.01141
3.01053
3.00968
3.00885
3.00804
3.00767
3.00655
3.00567
3.00485
3.00396
3.003
3.00192
3.00071
2.99936
2.99789
2.9963
2.99461
2.99286
2.99108
2.98931
2.98754
2.99745
)
;
    }
}


// ************************************************************************* //
