/*--------------------------------*- C++ -*----------------------------------*\
| =========                 |                                                 |
| \\      /  F ield         | OpenFOAM: The Open Source CFD Toolbox           |
|  \\    /   O peration     | Version:  2406                                  |
|   \\  /    A nd           | Website:  www.openfoam.com                      |
|    \\/     M anipulation  |                                                 |
\*---------------------------------------------------------------------------*/
FoamFile
{
    version     2.0;
    format      ascii;
    arch        "LSB;label=32;scalar=64";
    class       volTensorField;
    location    "0.6/fluidRegion";
    object      Kd.liquid.structure;
}
// * * * * * * * * * * * * * * * * * * * * * * * * * * * * * * * * * * * * * //

dimensions      [1 -3 -1 0 0 0 0];

internalField   nonuniform List<tensor> 
70
(
(416.827 0 0 0 416.827 0 0 0 416.827)
(416.101 0 0 0 416.101 0 0 0 416.101)
(424.167 0 0 0 424.167 0 0 0 424.167)
(443.246 0 0 0 443.246 0 0 0 443.246)
(467.762 0 0 0 467.762 0 0 0 467.762)
(497.901 0 0 0 497.901 0 0 0 497.901)
(533.288 0 0 0 533.288 0 0 0 533.288)
(574.249 0 0 0 574.249 0 0 0 574.249)
(621.174 0 0 0 621.174 0 0 0 621.174)
(674.5 0 0 0 674.5 0 0 0 674.5)
(734.597 0 0 0 734.597 0 0 0 734.597)
(801.696 0 0 0 801.696 0 0 0 801.696)
(875.828 0 0 0 875.828 0 0 0 875.828)
(956.783 0 0 0 956.783 0 0 0 956.783)
(1044.1 0 0 0 1044.1 0 0 0 1044.1)
(1137.11 0 0 0 1137.11 0 0 0 1137.11)
(1234.97 0 0 0 1234.97 0 0 0 1234.97)
(1336.72 0 0 0 1336.72 0 0 0 1336.72)
(1445.42 0 0 0 1445.42 0 0 0 1445.42)
(1559.24 0 0 0 1559.24 0 0 0 1559.24)
(1672.35 0 0 0 1672.35 0 0 0 1672.35)
(1782.45 0 0 0 1782.45 0 0 0 1782.45)
(1889.08 0 0 0 1889.08 0 0 0 1889.08)
(1992.15 0 0 0 1992.15 0 0 0 1992.15)
(2091.47 0 0 0 2091.47 0 0 0 2091.47)
(2187.3 0 0 0 2187.3 0 0 0 2187.3)
(2280 0 0 0 2280 0 0 0 2280)
(2369.89 0 0 0 2369.89 0 0 0 2369.89)
(2457.23 0 0 0 2457.23 0 0 0 2457.23)
(2542.26 0 0 0 2542.26 0 0 0 2542.26)
(2625.16 0 0 0 2625.16 0 0 0 2625.16)
(2706.11 0 0 0 2706.11 0 0 0 2706.11)
(2785.25 0 0 0 2785.25 0 0 0 2785.25)
(2862.72 0 0 0 2862.72 0 0 0 2862.72)
(2938.64 0 0 0 2938.64 0 0 0 2938.64)
(3013.13 0 0 0 3013.13 0 0 0 3013.13)
(3086.29 0 0 0 3086.29 0 0 0 3086.29)
(3158.22 0 0 0 3158.22 0 0 0 3158.22)
(3228.99 0 0 0 3228.99 0 0 0 3228.99)
(3298.69 0 0 0 3298.69 0 0 0 3298.69)
(3367.37 0 0 0 3367.37 0 0 0 3367.37)
(3435.09 0 0 0 3435.09 0 0 0 3435.09)
(3501.91 0 0 0 3501.91 0 0 0 3501.91)
(3567.88 0 0 0 3567.88 0 0 0 3567.88)
(3633.05 0 0 0 3633.05 0 0 0 3633.05)
(3697.47 0 0 0 3697.47 0 0 0 3697.47)
(3761.21 0 0 0 3761.21 0 0 0 3761.21)
(3824.3 0 0 0 3824.3 0 0 0 3824.3)
(3886.79 0 0 0 3886.79 0 0 0 3886.79)
(3948.69 0 0 0 3948.69 0 0 0 3948.69)
(4010.04 0 0 0 4010.04 0 0 0 4010.04)
(4070.85 0 0 0 4070.85 0 0 0 4070.85)
(4131.13 0 0 0 4131.13 0 0 0 4131.13)
(4190.92 0 0 0 4190.92 0 0 0 4190.92)
(4250.22 0 0 0 4250.22 0 0 0 4250.22)
(4309.07 0 0 0 4309.07 0 0 0 4309.07)
(4367.5 0 0 0 4367.5 0 0 0 4367.5)
(4425.54 0 0 0 4425.54 0 0 0 4425.54)
(4483.23 0 0 0 4483.23 0 0 0 4483.23)
(4540.58 0 0 0 4540.58 0 0 0 4540.58)
(4597.62 0 0 0 4597.62 0 0 0 4597.62)
(4654.35 0 0 0 4654.35 0 0 0 4654.35)
(4710.75 0 0 0 4710.75 0 0 0 4710.75)
(4766.82 0 0 0 4766.82 0 0 0 4766.82)
(4822.53 0 0 0 4822.53 0 0 0 4822.53)
(4877.87 0 0 0 4877.87 0 0 0 4877.87)
(4932.81 0 0 0 4932.81 0 0 0 4932.81)
(4987.41 0 0 0 4987.41 0 0 0 4987.41)
(5041.1 0 0 0 5041.1 0 0 0 5041.1)
(5099.81 0 0 0 5099.81 0 0 0 5099.81)
)
;

boundaryField
{
    inlet
    {
        type            zeroGradient;
    }
    outlet
    {
        type            zeroGradient;
    }
    fixedWalls
    {
        type            zeroGradient;
    }
}


// ************************************************************************* //
