/*--------------------------------*- C++ -*----------------------------------*\
| =========                 |                                                 |
| \\      /  F ield         | OpenFOAM: The Open Source CFD Toolbox           |
|  \\    /   O peration     | Version:  2406                                  |
|   \\  /    A nd           | Website:  www.openfoam.com                      |
|    \\/     M anipulation  |                                                 |
\*---------------------------------------------------------------------------*/
FoamFile
{
    version     2.0;
    format      ascii;
    arch        "LSB;label=32;scalar=64";
    class       volTensorField;
    location    "0.6/fluidRegion";
    object      KdTotU;
}
// * * * * * * * * * * * * * * * * * * * * * * * * * * * * * * * * * * * * * //

dimensions      [1 -2 -2 0 0 0 0];

internalField   nonuniform List<tensor> 
70
(
(536.274 0 0 0 536.274 0 0 0 536.274)
(535.961 0 0 0 535.961 0 0 0 535.961)
(547.463 0 0 0 547.463 0 0 0 547.463)
(574.097 0 0 0 574.097 0 0 0 574.097)
(608.706 0 0 0 608.706 0 0 0 608.706)
(651.684 0 0 0 651.684 0 0 0 651.684)
(702.819 0 0 0 702.819 0 0 0 702.819)
(762.912 0 0 0 762.912 0 0 0 762.912)
(832.969 0 0 0 832.969 0 0 0 832.969)
(914.207 0 0 0 914.207 0 0 0 914.207)
(1007.9 0 0 0 1007.9 0 0 0 1007.9)
(1115.32 0 0 0 1115.32 0 0 0 1115.32)
(1237.63 0 0 0 1237.63 0 0 0 1237.63)
(1375.8 0 0 0 1375.8 0 0 0 1375.8)
(1530.59 0 0 0 1530.59 0 0 0 1530.59)
(1702.5 0 0 0 1702.5 0 0 0 1702.5)
(1891.76 0 0 0 1891.76 0 0 0 1891.76)
(2098.52 0 0 0 2098.52 0 0 0 2098.52)
(2330.57 0 0 0 2330.57 0 0 0 2330.57)
(2586.88 0 0 0 2586.88 0 0 0 2586.88)
(2856.56 0 0 0 2856.56 0 0 0 2856.56)
(3134.33 0 0 0 3134.33 0 0 0 3134.33)
(3418.48 0 0 0 3418.48 0 0 0 3418.48)
(3707.9 0 0 0 3707.9 0 0 0 3707.9)
(4001.12 0 0 0 4001.12 0 0 0 4001.12)
(4297.68 0 0 0 4297.68 0 0 0 4297.68)
(4597.66 0 0 0 4597.66 0 0 0 4597.66)
(4901.15 0 0 0 4901.15 0 0 0 4901.15)
(5208.26 0 0 0 5208.26 0 0 0 5208.26)
(5519.12 0 0 0 5519.12 0 0 0 5519.12)
(5833.87 0 0 0 5833.87 0 0 0 5833.87)
(6152.67 0 0 0 6152.67 0 0 0 6152.67)
(6475.67 0 0 0 6475.67 0 0 0 6475.67)
(6803.07 0 0 0 6803.07 0 0 0 6803.07)
(7135.03 0 0 0 7135.03 0 0 0 7135.03)
(7471.75 0 0 0 7471.75 0 0 0 7471.75)
(7813.4 0 0 0 7813.4 0 0 0 7813.4)
(8160.15 0 0 0 8160.15 0 0 0 8160.15)
(8512.15 0 0 0 8512.15 0 0 0 8512.15)
(8869.53 0 0 0 8869.53 0 0 0 8869.53)
(9232.43 0 0 0 9232.43 0 0 0 9232.43)
(9601.02 0 0 0 9601.02 0 0 0 9601.02)
(9975.46 0 0 0 9975.46 0 0 0 9975.46)
(10355.9 0 0 0 10355.9 0 0 0 10355.9)
(10742.5 0 0 0 10742.5 0 0 0 10742.5)
(11135.4 0 0 0 11135.4 0 0 0 11135.4)
(11534.7 0 0 0 11534.7 0 0 0 11534.7)
(11940.4 0 0 0 11940.4 0 0 0 11940.4)
(12352.8 0 0 0 12352.8 0 0 0 12352.8)
(12771.9 0 0 0 12771.9 0 0 0 12771.9)
(13197.7 0 0 0 13197.7 0 0 0 13197.7)
(13630.5 0 0 0 13630.5 0 0 0 13630.5)
(14070.2 0 0 0 14070.2 0 0 0 14070.2)
(14517.3 0 0 0 14517.3 0 0 0 14517.3)
(14971.7 0 0 0 14971.7 0 0 0 14971.7)
(15433.6 0 0 0 15433.6 0 0 0 15433.6)
(15903.2 0 0 0 15903.2 0 0 0 15903.2)
(16380.7 0 0 0 16380.7 0 0 0 16380.7)
(16865.9 0 0 0 16865.9 0 0 0 16865.9)
(17358.8 0 0 0 17358.8 0 0 0 17358.8)
(17859.2 0 0 0 17859.2 0 0 0 17859.2)
(18367 0 0 0 18367 0 0 0 18367)
(18881.9 0 0 0 18881.9 0 0 0 18881.9)
(19403.8 0 0 0 19403.8 0 0 0 19403.8)
(19932.6 0 0 0 19932.6 0 0 0 19932.6)
(20468.3 0 0 0 20468.3 0 0 0 20468.3)
(21011.1 0 0 0 21011.1 0 0 0 21011.1)
(21560.9 0 0 0 21560.9 0 0 0 21560.9)
(22118.6 0 0 0 22118.6 0 0 0 22118.6)
(22682 0 0 0 22682 0 0 0 22682)
)
;

boundaryField
{
    inlet
    {
        type            zeroGradient;
    }
    outlet
    {
        type            zeroGradient;
    }
    fixedWalls
    {
        type            zeroGradient;
    }
}


// ************************************************************************* //
