/*--------------------------------*- C++ -*----------------------------------*\
| =========                 |                                                 |
| \\      /  F ield         | OpenFOAM: The Open Source CFD Toolbox           |
|  \\    /   O peration     | Version:  2406                                  |
|   \\  /    A nd           | Website:  www.openfoam.com                      |
|    \\/     M anipulation  |                                                 |
\*---------------------------------------------------------------------------*/
FoamFile
{
    version     2.0;
    format      ascii;
    arch        "LSB;label=32;scalar=64";
    class       volScalarField;
    location    "0.6/fluidRegion";
    object      p;
}
// * * * * * * * * * * * * * * * * * * * * * * * * * * * * * * * * * * * * * //

dimensions      [1 -1 -2 0 0 0 0];

internalField   nonuniform List<scalar> 
70
(
7.23e+06
7.22981e+06
7.22962e+06
7.22943e+06
7.22923e+06
7.22903e+06
7.22883e+06
7.22863e+06
7.22842e+06
7.22822e+06
7.228e+06
7.22778e+06
7.22756e+06
7.22733e+06
7.22709e+06
7.22685e+06
7.22659e+06
7.22633e+06
7.22605e+06
7.22577e+06
7.22546e+06
7.22515e+06
7.22483e+06
7.2245e+06
7.22415e+06
7.2238e+06
7.22343e+06
7.22306e+06
7.22267e+06
7.22228e+06
7.22187e+06
7.22145e+06
7.22102e+06
7.22057e+06
7.22012e+06
7.21965e+06
7.21916e+06
7.21867e+06
7.21816e+06
7.21764e+06
7.2171e+06
7.21655e+06
7.21599e+06
7.21541e+06
7.21481e+06
7.2142e+06
7.21358e+06
7.21293e+06
7.21227e+06
7.2116e+06
7.2109e+06
7.21019e+06
7.20946e+06
7.20872e+06
7.20795e+06
7.20716e+06
7.20636e+06
7.20553e+06
7.20469e+06
7.20382e+06
7.20293e+06
7.20202e+06
7.20109e+06
7.20014e+06
7.19916e+06
7.19816e+06
7.19714e+06
7.19609e+06
7.19502e+06
7.19393e+06
)
;

boundaryField
{
    inlet
    {
        type            calculated;
        value           uniform 7.2301e+06;
    }
    outlet
    {
        type            calculated;
        value           uniform 7.19334e+06;
    }
    fixedWalls
    {
        type            calculated;
        value           nonuniform List<scalar> 
280
(
7.23e+06
7.22981e+06
7.22962e+06
7.22943e+06
7.22923e+06
7.22903e+06
7.22883e+06
7.22863e+06
7.22842e+06
7.22822e+06
7.228e+06
7.22778e+06
7.22756e+06
7.22733e+06
7.22709e+06
7.22685e+06
7.22659e+06
7.22633e+06
7.22605e+06
7.22577e+06
7.22546e+06
7.22515e+06
7.22483e+06
7.2245e+06
7.22415e+06
7.2238e+06
7.22343e+06
7.22306e+06
7.22267e+06
7.22228e+06
7.22187e+06
7.22145e+06
7.22102e+06
7.22057e+06
7.22012e+06
7.21965e+06
7.21916e+06
7.21867e+06
7.21816e+06
7.21764e+06
7.2171e+06
7.21655e+06
7.21599e+06
7.21541e+06
7.21481e+06
7.2142e+06
7.21358e+06
7.21293e+06
7.21227e+06
7.2116e+06
7.2109e+06
7.21019e+06
7.20946e+06
7.20872e+06
7.20795e+06
7.20716e+06
7.20636e+06
7.20553e+06
7.20469e+06
7.20382e+06
7.20293e+06
7.20202e+06
7.20109e+06
7.20014e+06
7.19916e+06
7.19816e+06
7.19714e+06
7.19609e+06
7.19502e+06
7.19393e+06
7.23e+06
7.22981e+06
7.22962e+06
7.22943e+06
7.22923e+06
7.22903e+06
7.22883e+06
7.22863e+06
7.22842e+06
7.22822e+06
7.228e+06
7.22778e+06
7.22756e+06
7.22733e+06
7.22709e+06
7.22685e+06
7.22659e+06
7.22633e+06
7.22605e+06
7.22577e+06
7.22546e+06
7.22515e+06
7.22483e+06
7.2245e+06
7.22415e+06
7.2238e+06
7.22343e+06
7.22306e+06
7.22267e+06
7.22228e+06
7.22187e+06
7.22145e+06
7.22102e+06
7.22057e+06
7.22012e+06
7.21965e+06
7.21916e+06
7.21867e+06
7.21816e+06
7.21764e+06
7.2171e+06
7.21655e+06
7.21599e+06
7.21541e+06
7.21481e+06
7.2142e+06
7.21358e+06
7.21293e+06
7.21227e+06
7.2116e+06
7.2109e+06
7.21019e+06
7.20946e+06
7.20872e+06
7.20795e+06
7.20716e+06
7.20636e+06
7.20553e+06
7.20469e+06
7.20382e+06
7.20293e+06
7.20202e+06
7.20109e+06
7.20014e+06
7.19916e+06
7.19816e+06
7.19714e+06
7.19609e+06
7.19502e+06
7.19393e+06
7.23e+06
7.22981e+06
7.22962e+06
7.22943e+06
7.22923e+06
7.22903e+06
7.22883e+06
7.22863e+06
7.22842e+06
7.22822e+06
7.228e+06
7.22778e+06
7.22756e+06
7.22733e+06
7.22709e+06
7.22685e+06
7.22659e+06
7.22633e+06
7.22605e+06
7.22577e+06
7.22546e+06
7.22515e+06
7.22483e+06
7.2245e+06
7.22415e+06
7.2238e+06
7.22343e+06
7.22306e+06
7.22267e+06
7.22228e+06
7.22187e+06
7.22145e+06
7.22102e+06
7.22057e+06
7.22012e+06
7.21965e+06
7.21916e+06
7.21867e+06
7.21816e+06
7.21764e+06
7.2171e+06
7.21655e+06
7.21599e+06
7.21541e+06
7.21481e+06
7.2142e+06
7.21358e+06
7.21293e+06
7.21227e+06
7.2116e+06
7.2109e+06
7.21019e+06
7.20946e+06
7.20872e+06
7.20795e+06
7.20716e+06
7.20636e+06
7.20553e+06
7.20469e+06
7.20382e+06
7.20293e+06
7.20202e+06
7.20109e+06
7.20014e+06
7.19916e+06
7.19816e+06
7.19714e+06
7.19609e+06
7.19502e+06
7.19393e+06
7.23e+06
7.22981e+06
7.22962e+06
7.22943e+06
7.22923e+06
7.22903e+06
7.22883e+06
7.22863e+06
7.22842e+06
7.22822e+06
7.228e+06
7.22778e+06
7.22756e+06
7.22733e+06
7.22709e+06
7.22685e+06
7.22659e+06
7.22633e+06
7.22605e+06
7.22577e+06
7.22546e+06
7.22515e+06
7.22483e+06
7.2245e+06
7.22415e+06
7.2238e+06
7.22343e+06
7.22306e+06
7.22267e+06
7.22228e+06
7.22187e+06
7.22145e+06
7.22102e+06
7.22057e+06
7.22012e+06
7.21965e+06
7.21916e+06
7.21867e+06
7.21816e+06
7.21764e+06
7.2171e+06
7.21655e+06
7.21599e+06
7.21541e+06
7.21481e+06
7.2142e+06
7.21358e+06
7.21293e+06
7.21227e+06
7.2116e+06
7.2109e+06
7.21019e+06
7.20946e+06
7.20872e+06
7.20795e+06
7.20716e+06
7.20636e+06
7.20553e+06
7.20469e+06
7.20382e+06
7.20293e+06
7.20202e+06
7.20109e+06
7.20014e+06
7.19916e+06
7.19816e+06
7.19714e+06
7.19609e+06
7.19502e+06
7.19393e+06
)
;
    }
}


// ************************************************************************* //
