/*--------------------------------*- C++ -*----------------------------------*\
| =========                 |                                                 |
| \\      /  F ield         | OpenFOAM: The Open Source CFD Toolbox           |
|  \\    /   O peration     | Version:  2406                                  |
|   \\  /    A nd           | Website:  www.openfoam.com                      |
|    \\/     M anipulation  |                                                 |
\*---------------------------------------------------------------------------*/
FoamFile
{
    version     2.0;
    format      ascii;
    arch        "LSB;label=32;scalar=64";
    class       volScalarField;
    location    "0.6/fluidRegion";
    object      dgdt.vapour;
}
// * * * * * * * * * * * * * * * * * * * * * * * * * * * * * * * * * * * * * //

dimensions      [0 0 -1 0 0 0 0];

internalField   nonuniform List<scalar> 
70
(
-0
-0
-0
-0
-0
-0
-0
-0
-0
-0
-1.90776e-28
-1.81925e-27
-1.99931e-27
-3.02697e-27
-4.41223e-27
-5.92422e-27
-7.3301e-27
-8.02541e-27
-8.07989e-27
-9.1701e-27
-1.06172e-26
-1.20096e-26
-1.32991e-26
-1.44507e-26
-1.54936e-26
0.149713
0.359248
0.554436
0.738746
0.913423
1.08129
1.2447
1.40522
1.56397
1.72171
1.87886
2.03559
2.19184
2.34735
2.50169
2.65428
2.80446
2.95147
3.18873
3.38364
3.51393
3.61472
3.69863
3.77132
3.83576
3.89368
3.94623
3.97912
3.98771
3.99614
4.0045
4.01285
4.02121
4.02962
4.03807
4.04657
4.05514
4.06377
4.07245
4.08119
4.08998
4.09882
4.1077
4.11663
4.14168
)
;

boundaryField
{
    inlet
    {
        type            calculated;
        value           uniform -0;
    }
    outlet
    {
        type            calculated;
        value           uniform 4.14168;
    }
    fixedWalls
    {
        type            calculated;
        value           nonuniform List<scalar> 
280
(
-0
-0
-0
-0
-0
-0
-0
-0
-0
-0
-1.90776e-28
-1.81925e-27
-1.99931e-27
-3.02697e-27
-4.41223e-27
-5.92422e-27
-7.3301e-27
-8.02541e-27
-8.07989e-27
-9.1701e-27
-1.06172e-26
-1.20096e-26
-1.32991e-26
-1.44507e-26
-1.54936e-26
0.149713
0.359248
0.554436
0.738746
0.913423
1.08129
1.2447
1.40522
1.56397
1.72171
1.87886
2.03559
2.19184
2.34735
2.50169
2.65428
2.80446
2.95147
3.18873
3.38364
3.51393
3.61472
3.69863
3.77132
3.83576
3.89368
3.94623
3.97912
3.98771
3.99614
4.0045
4.01285
4.02121
4.02962
4.03807
4.04657
4.05514
4.06377
4.07245
4.08119
4.08998
4.09882
4.1077
4.11663
4.14168
-0
-0
-0
-0
-0
-0
-0
-0
-0
-0
-1.90776e-28
-1.81925e-27
-1.99931e-27
-3.02697e-27
-4.41223e-27
-5.92422e-27
-7.3301e-27
-8.02541e-27
-8.07989e-27
-9.1701e-27
-1.06172e-26
-1.20096e-26
-1.32991e-26
-1.44507e-26
-1.54936e-26
0.149713
0.359248
0.554436
0.738746
0.913423
1.08129
1.2447
1.40522
1.56397
1.72171
1.87886
2.03559
2.19184
2.34735
2.50169
2.65428
2.80446
2.95147
3.18873
3.38364
3.51393
3.61472
3.69863
3.77132
3.83576
3.89368
3.94623
3.97912
3.98771
3.99614
4.0045
4.01285
4.02121
4.02962
4.03807
4.04657
4.05514
4.06377
4.07245
4.08119
4.08998
4.09882
4.1077
4.11663
4.14168
-0
-0
-0
-0
-0
-0
-0
-0
-0
-0
-1.90776e-28
-1.81925e-27
-1.99931e-27
-3.02697e-27
-4.41223e-27
-5.92422e-27
-7.3301e-27
-8.02541e-27
-8.07989e-27
-9.1701e-27
-1.06172e-26
-1.20096e-26
-1.32991e-26
-1.44507e-26
-1.54936e-26
0.149713
0.359248
0.554436
0.738746
0.913423
1.08129
1.2447
1.40522
1.56397
1.72171
1.87886
2.03559
2.19184
2.34735
2.50169
2.65428
2.80446
2.95147
3.18873
3.38364
3.51393
3.61472
3.69863
3.77132
3.83576
3.89368
3.94623
3.97912
3.98771
3.99614
4.0045
4.01285
4.02121
4.02962
4.03807
4.04657
4.05514
4.06377
4.07245
4.08119
4.08998
4.09882
4.1077
4.11663
4.14168
-0
-0
-0
-0
-0
-0
-0
-0
-0
-0
-1.90776e-28
-1.81925e-27
-1.99931e-27
-3.02697e-27
-4.41223e-27
-5.92422e-27
-7.3301e-27
-8.02541e-27
-8.07989e-27
-9.1701e-27
-1.06172e-26
-1.20096e-26
-1.32991e-26
-1.44507e-26
-1.54936e-26
0.149713
0.359248
0.554436
0.738746
0.913423
1.08129
1.2447
1.40522
1.56397
1.72171
1.87886
2.03559
2.19184
2.34735
2.50169
2.65428
2.80446
2.95147
3.18873
3.38364
3.51393
3.61472
3.69863
3.77132
3.83576
3.89368
3.94623
3.97912
3.98771
3.99614
4.0045
4.01285
4.02121
4.02962
4.03807
4.04657
4.05514
4.06377
4.07245
4.08119
4.08998
4.09882
4.1077
4.11663
4.14168
)
;
    }
}


// ************************************************************************* //
