/*--------------------------------*- C++ -*----------------------------------*\
| =========                 |                                                 |
| \\      /  F ield         | OpenFOAM: The Open Source CFD Toolbox           |
|  \\    /   O peration     | Version:  2406                                  |
|   \\  /    A nd           | Website:  www.openfoam.com                      |
|    \\/     M anipulation  |                                                 |
\*---------------------------------------------------------------------------*/
FoamFile
{
    version     2.0;
    format      ascii;
    arch        "LSB;label=32;scalar=64";
    class       volTensorField;
    location    "0.6/fluidRegion";
    object      Kd.liquid.structure;
}
// * * * * * * * * * * * * * * * * * * * * * * * * * * * * * * * * * * * * * //

dimensions      [1 -3 -1 0 0 0 0];

internalField   nonuniform List<tensor> 
70
(
(1134.17 0 0 0 1134.17 0 0 0 1134.17)
(1133.21 0 0 0 1133.21 0 0 0 1133.21)
(1132.26 0 0 0 1132.26 0 0 0 1132.26)
(1131.3 0 0 0 1131.3 0 0 0 1131.3)
(1130.34 0 0 0 1130.34 0 0 0 1130.34)
(1129.37 0 0 0 1129.37 0 0 0 1129.37)
(1128.4 0 0 0 1128.4 0 0 0 1128.4)
(1127.44 0 0 0 1127.44 0 0 0 1127.44)
(1126.46 0 0 0 1126.46 0 0 0 1126.46)
(1125.49 0 0 0 1125.49 0 0 0 1125.49)
(1124.51 0 0 0 1124.51 0 0 0 1124.51)
(1123.53 0 0 0 1123.53 0 0 0 1123.53)
(1122.55 0 0 0 1122.55 0 0 0 1122.55)
(1121.56 0 0 0 1121.56 0 0 0 1121.56)
(1120.57 0 0 0 1120.57 0 0 0 1120.57)
(1119.58 0 0 0 1119.58 0 0 0 1119.58)
(1118.58 0 0 0 1118.58 0 0 0 1118.58)
(1117.58 0 0 0 1117.58 0 0 0 1117.58)
(1116.58 0 0 0 1116.58 0 0 0 1116.58)
(1115.58 0 0 0 1115.58 0 0 0 1115.58)
(1114.57 0 0 0 1114.57 0 0 0 1114.57)
(1113.56 0 0 0 1113.56 0 0 0 1113.56)
(1112.55 0 0 0 1112.55 0 0 0 1112.55)
(1111.53 0 0 0 1111.53 0 0 0 1111.53)
(1110.52 0 0 0 1110.52 0 0 0 1110.52)
(1133.5 0 0 0 1133.5 0 0 0 1133.5)
(1182.66 0 0 0 1182.66 0 0 0 1182.66)
(1251.96 0 0 0 1251.96 0 0 0 1251.96)
(1336.76 0 0 0 1336.76 0 0 0 1336.76)
(1435.7 0 0 0 1435.7 0 0 0 1435.7)
(1547 0 0 0 1547 0 0 0 1547)
(1668.98 0 0 0 1668.98 0 0 0 1668.98)
(1800.43 0 0 0 1800.43 0 0 0 1800.43)
(1940.34 0 0 0 1940.34 0 0 0 1940.34)
(2087.84 0 0 0 2087.84 0 0 0 2087.84)
(2242.16 0 0 0 2242.16 0 0 0 2242.16)
(2402.61 0 0 0 2402.61 0 0 0 2402.61)
(2568.52 0 0 0 2568.52 0 0 0 2568.52)
(2739.28 0 0 0 2739.28 0 0 0 2739.28)
(2914.31 0 0 0 2914.31 0 0 0 2914.31)
(3093.01 0 0 0 3093.01 0 0 0 3093.01)
(3274.82 0 0 0 3274.82 0 0 0 3274.82)
(3459.28 0 0 0 3459.28 0 0 0 3459.28)
(3650.23 0 0 0 3650.23 0 0 0 3650.23)
(3846.16 0 0 0 3846.16 0 0 0 3846.16)
(4043.21 0 0 0 4043.21 0 0 0 4043.21)
(4239.13 0 0 0 4239.13 0 0 0 4239.13)
(4432.93 0 0 0 4432.93 0 0 0 4432.93)
(4624.16 0 0 0 4624.16 0 0 0 4624.16)
(4812.58 0 0 0 4812.58 0 0 0 4812.58)
(4998.1 0 0 0 4998.1 0 0 0 4998.1)
(5180.67 0 0 0 5180.67 0 0 0 5180.67)
(5359.81 0 0 0 5359.81 0 0 0 5359.81)
(5534.78 0 0 0 5534.78 0 0 0 5534.78)
(5705.56 0 0 0 5705.56 0 0 0 5705.56)
(5872.45 0 0 0 5872.45 0 0 0 5872.45)
(6035.71 0 0 0 6035.71 0 0 0 6035.71)
(6195.57 0 0 0 6195.57 0 0 0 6195.57)
(6352.25 0 0 0 6352.25 0 0 0 6352.25)
(6505.96 0 0 0 6505.96 0 0 0 6505.96)
(6656.86 0 0 0 6656.86 0 0 0 6656.86)
(6805.12 0 0 0 6805.12 0 0 0 6805.12)
(6950.9 0 0 0 6950.9 0 0 0 6950.9)
(7094.34 0 0 0 7094.34 0 0 0 7094.34)
(7235.56 0 0 0 7235.56 0 0 0 7235.56)
(7374.68 0 0 0 7374.68 0 0 0 7374.68)
(7511.81 0 0 0 7511.81 0 0 0 7511.81)
(7647.05 0 0 0 7647.05 0 0 0 7647.05)
(7780.54 0 0 0 7780.54 0 0 0 7780.54)
(7912.19 0 0 0 7912.19 0 0 0 7912.19)
)
;

boundaryField
{
    inlet
    {
        type            zeroGradient;
    }
    outlet
    {
        type            zeroGradient;
    }
    fixedWalls
    {
        type            zeroGradient;
    }
}


// ************************************************************************* //
