/*--------------------------------*- C++ -*----------------------------------*\
| =========                 |                                                 |
| \\      /  F ield         | OpenFOAM: The Open Source CFD Toolbox           |
|  \\    /   O peration     | Version:  2406                                  |
|   \\  /    A nd           | Website:  www.openfoam.com                      |
|    \\/     M anipulation  |                                                 |
\*---------------------------------------------------------------------------*/
FoamFile
{
    version     2.0;
    format      ascii;
    arch        "LSB;label=32;scalar=64";
    class       volTensorField;
    location    "0.6/fluidRegion";
    object      KdTotU;
}
// * * * * * * * * * * * * * * * * * * * * * * * * * * * * * * * * * * * * * //

dimensions      [1 -2 -2 0 0 0 0];

internalField   nonuniform List<tensor> 
70
(
(5073 0 0 0 5073 0 0 0 5073)
(5081.94 0 0 0 5081.94 0 0 0 5081.94)
(5090.97 0 0 0 5090.97 0 0 0 5090.97)
(5100.1 0 0 0 5100.1 0 0 0 5100.1)
(5109.31 0 0 0 5109.31 0 0 0 5109.31)
(5118.61 0 0 0 5118.61 0 0 0 5118.61)
(5127.99 0 0 0 5127.99 0 0 0 5127.99)
(5137.45 0 0 0 5137.45 0 0 0 5137.45)
(5147 0 0 0 5147 0 0 0 5147)
(5156.62 0 0 0 5156.62 0 0 0 5156.62)
(5166.31 0 0 0 5166.31 0 0 0 5166.31)
(5176.08 0 0 0 5176.08 0 0 0 5176.08)
(5185.92 0 0 0 5185.92 0 0 0 5185.92)
(5195.82 0 0 0 5195.82 0 0 0 5195.82)
(5205.79 0 0 0 5205.79 0 0 0 5205.79)
(5215.83 0 0 0 5215.83 0 0 0 5215.83)
(5225.92 0 0 0 5225.92 0 0 0 5225.92)
(5236.07 0 0 0 5236.07 0 0 0 5236.07)
(5246.28 0 0 0 5246.28 0 0 0 5246.28)
(5256.55 0 0 0 5256.55 0 0 0 5256.55)
(5266.87 0 0 0 5266.87 0 0 0 5266.87)
(5277.23 0 0 0 5277.23 0 0 0 5277.23)
(5287.64 0 0 0 5287.64 0 0 0 5287.64)
(5298.1 0 0 0 5298.1 0 0 0 5298.1)
(5308.6 0 0 0 5308.6 0 0 0 5308.6)
(5437.49 0 0 0 5437.49 0 0 0 5437.49)
(5700.75 0 0 0 5700.75 0 0 0 5700.75)
(6072.42 0 0 0 6072.42 0 0 0 6072.42)
(6531.84 0 0 0 6531.84 0 0 0 6531.84)
(7074.17 0 0 0 7074.17 0 0 0 7074.17)
(7693.08 0 0 0 7693.08 0 0 0 7693.08)
(8382.65 0 0 0 8382.65 0 0 0 8382.65)
(9139.33 0 0 0 9139.33 0 0 0 9139.33)
(9960.34 0 0 0 9960.34 0 0 0 9960.34)
(10843.6 0 0 0 10843.6 0 0 0 10843.6)
(11787.3 0 0 0 11787.3 0 0 0 11787.3)
(12790 0 0 0 12790 0 0 0 12790)
(13850 0 0 0 13850 0 0 0 13850)
(14965.9 0 0 0 14965.9 0 0 0 14965.9)
(16135.9 0 0 0 16135.9 0 0 0 16135.9)
(17358 0 0 0 17358 0 0 0 17358)
(18630 0 0 0 18630 0 0 0 18630)
(19950.5 0 0 0 19950.5 0 0 0 19950.5)
(21345.5 0 0 0 21345.5 0 0 0 21345.5)
(22809.1 0 0 0 22809.1 0 0 0 22809.1)
(24315.6 0 0 0 24315.6 0 0 0 24315.6)
(25847.6 0 0 0 25847.6 0 0 0 25847.6)
(27396.8 0 0 0 27396.8 0 0 0 27396.8)
(28957.6 0 0 0 28957.6 0 0 0 28957.6)
(30526.7 0 0 0 30526.7 0 0 0 30526.7)
(32101.2 0 0 0 32101.2 0 0 0 32101.2)
(33678.8 0 0 0 33678.8 0 0 0 33678.8)
(35253.9 0 0 0 35253.9 0 0 0 35253.9)
(36818.3 0 0 0 36818.3 0 0 0 36818.3)
(38369.3 0 0 0 38369.3 0 0 0 38369.3)
(39907.4 0 0 0 39907.4 0 0 0 39907.4)
(41432.9 0 0 0 41432.9 0 0 0 41432.9)
(42946.3 0 0 0 42946.3 0 0 0 42946.3)
(44447.8 0 0 0 44447.8 0 0 0 44447.8)
(45937.8 0 0 0 45937.8 0 0 0 45937.8)
(47416.4 0 0 0 47416.4 0 0 0 47416.4)
(48884 0 0 0 48884 0 0 0 48884)
(50340.7 0 0 0 50340.7 0 0 0 50340.7)
(51786.8 0 0 0 51786.8 0 0 0 51786.8)
(53222.4 0 0 0 53222.4 0 0 0 53222.4)
(54647.8 0 0 0 54647.8 0 0 0 54647.8)
(56062.9 0 0 0 56062.9 0 0 0 56062.9)
(57468.1 0 0 0 57468.1 0 0 0 57468.1)
(58863.2 0 0 0 58863.2 0 0 0 58863.2)
(60253.7 0 0 0 60253.7 0 0 0 60253.7)
)
;

boundaryField
{
    inlet
    {
        type            zeroGradient;
    }
    outlet
    {
        type            zeroGradient;
    }
    fixedWalls
    {
        type            zeroGradient;
    }
}


// ************************************************************************* //
