/*--------------------------------*- C++ -*----------------------------------*\
| =========                 |                                                 |
| \\      /  F ield         | OpenFOAM: The Open Source CFD Toolbox           |
|  \\    /   O peration     | Version:  2406                                  |
|   \\  /    A nd           | Website:  www.openfoam.com                      |
|    \\/     M anipulation  |                                                 |
\*---------------------------------------------------------------------------*/
FoamFile
{
    version     2.0;
    format      ascii;
    arch        "LSB;label=32;scalar=64";
    class       volScalarField;
    location    "0.6/fluidRegion";
    object      p;
}
// * * * * * * * * * * * * * * * * * * * * * * * * * * * * * * * * * * * * * //

dimensions      [1 -1 -2 0 0 0 0];

internalField   nonuniform List<scalar> 
70
(
1.48065e+07
1.48063e+07
1.4806e+07
1.48057e+07
1.48054e+07
1.48051e+07
1.48048e+07
1.48045e+07
1.48041e+07
1.48038e+07
1.48035e+07
1.48032e+07
1.48029e+07
1.48026e+07
1.48023e+07
1.4802e+07
1.48016e+07
1.48013e+07
1.4801e+07
1.48007e+07
1.48003e+07
1.48e+07
1.47997e+07
1.47994e+07
1.4799e+07
1.47987e+07
1.47983e+07
1.47979e+07
1.47975e+07
1.4797e+07
1.47965e+07
1.47959e+07
1.47953e+07
1.47946e+07
1.47939e+07
1.47931e+07
1.47922e+07
1.47913e+07
1.47904e+07
1.47893e+07
1.47882e+07
1.4787e+07
1.47858e+07
1.47844e+07
1.4783e+07
1.47815e+07
1.47799e+07
1.47782e+07
1.47765e+07
1.47747e+07
1.47727e+07
1.47707e+07
1.47687e+07
1.47665e+07
1.47643e+07
1.47619e+07
1.47595e+07
1.47571e+07
1.47545e+07
1.47519e+07
1.47492e+07
1.47464e+07
1.47436e+07
1.47406e+07
1.47376e+07
1.47346e+07
1.47314e+07
1.47282e+07
1.47249e+07
1.47215e+07
)
;

boundaryField
{
    inlet
    {
        type            calculated;
        value           uniform 1.48067e+07;
    }
    outlet
    {
        type            calculated;
        value           uniform 1.47198e+07;
    }
    fixedWalls
    {
        type            calculated;
        value           nonuniform List<scalar> 
280
(
1.48065e+07
1.48063e+07
1.4806e+07
1.48057e+07
1.48054e+07
1.48051e+07
1.48048e+07
1.48045e+07
1.48041e+07
1.48038e+07
1.48035e+07
1.48032e+07
1.48029e+07
1.48026e+07
1.48023e+07
1.4802e+07
1.48016e+07
1.48013e+07
1.4801e+07
1.48007e+07
1.48003e+07
1.48e+07
1.47997e+07
1.47994e+07
1.4799e+07
1.47987e+07
1.47983e+07
1.47979e+07
1.47975e+07
1.4797e+07
1.47965e+07
1.47959e+07
1.47953e+07
1.47946e+07
1.47939e+07
1.47931e+07
1.47922e+07
1.47913e+07
1.47904e+07
1.47893e+07
1.47882e+07
1.4787e+07
1.47858e+07
1.47844e+07
1.4783e+07
1.47815e+07
1.47799e+07
1.47782e+07
1.47765e+07
1.47747e+07
1.47727e+07
1.47707e+07
1.47687e+07
1.47665e+07
1.47643e+07
1.47619e+07
1.47595e+07
1.47571e+07
1.47545e+07
1.47519e+07
1.47492e+07
1.47464e+07
1.47436e+07
1.47406e+07
1.47376e+07
1.47346e+07
1.47314e+07
1.47282e+07
1.47249e+07
1.47215e+07
1.48065e+07
1.48063e+07
1.4806e+07
1.48057e+07
1.48054e+07
1.48051e+07
1.48048e+07
1.48045e+07
1.48041e+07
1.48038e+07
1.48035e+07
1.48032e+07
1.48029e+07
1.48026e+07
1.48023e+07
1.4802e+07
1.48016e+07
1.48013e+07
1.4801e+07
1.48007e+07
1.48003e+07
1.48e+07
1.47997e+07
1.47994e+07
1.4799e+07
1.47987e+07
1.47983e+07
1.47979e+07
1.47975e+07
1.4797e+07
1.47965e+07
1.47959e+07
1.47953e+07
1.47946e+07
1.47939e+07
1.47931e+07
1.47922e+07
1.47913e+07
1.47904e+07
1.47893e+07
1.47882e+07
1.4787e+07
1.47858e+07
1.47844e+07
1.4783e+07
1.47815e+07
1.47799e+07
1.47782e+07
1.47765e+07
1.47747e+07
1.47727e+07
1.47707e+07
1.47687e+07
1.47665e+07
1.47643e+07
1.47619e+07
1.47595e+07
1.47571e+07
1.47545e+07
1.47519e+07
1.47492e+07
1.47464e+07
1.47436e+07
1.47406e+07
1.47376e+07
1.47346e+07
1.47314e+07
1.47282e+07
1.47249e+07
1.47215e+07
1.48065e+07
1.48063e+07
1.4806e+07
1.48057e+07
1.48054e+07
1.48051e+07
1.48048e+07
1.48045e+07
1.48041e+07
1.48038e+07
1.48035e+07
1.48032e+07
1.48029e+07
1.48026e+07
1.48023e+07
1.4802e+07
1.48016e+07
1.48013e+07
1.4801e+07
1.48007e+07
1.48003e+07
1.48e+07
1.47997e+07
1.47994e+07
1.4799e+07
1.47987e+07
1.47983e+07
1.47979e+07
1.47975e+07
1.4797e+07
1.47965e+07
1.47959e+07
1.47953e+07
1.47946e+07
1.47939e+07
1.47931e+07
1.47922e+07
1.47913e+07
1.47904e+07
1.47893e+07
1.47882e+07
1.4787e+07
1.47858e+07
1.47844e+07
1.4783e+07
1.47815e+07
1.47799e+07
1.47782e+07
1.47765e+07
1.47747e+07
1.47727e+07
1.47707e+07
1.47687e+07
1.47665e+07
1.47643e+07
1.47619e+07
1.47595e+07
1.47571e+07
1.47545e+07
1.47519e+07
1.47492e+07
1.47464e+07
1.47436e+07
1.47406e+07
1.47376e+07
1.47346e+07
1.47314e+07
1.47282e+07
1.47249e+07
1.47215e+07
1.48065e+07
1.48063e+07
1.4806e+07
1.48057e+07
1.48054e+07
1.48051e+07
1.48048e+07
1.48045e+07
1.48041e+07
1.48038e+07
1.48035e+07
1.48032e+07
1.48029e+07
1.48026e+07
1.48023e+07
1.4802e+07
1.48016e+07
1.48013e+07
1.4801e+07
1.48007e+07
1.48003e+07
1.48e+07
1.47997e+07
1.47994e+07
1.4799e+07
1.47987e+07
1.47983e+07
1.47979e+07
1.47975e+07
1.4797e+07
1.47965e+07
1.47959e+07
1.47953e+07
1.47946e+07
1.47939e+07
1.47931e+07
1.47922e+07
1.47913e+07
1.47904e+07
1.47893e+07
1.47882e+07
1.4787e+07
1.47858e+07
1.47844e+07
1.4783e+07
1.47815e+07
1.47799e+07
1.47782e+07
1.47765e+07
1.47747e+07
1.47727e+07
1.47707e+07
1.47687e+07
1.47665e+07
1.47643e+07
1.47619e+07
1.47595e+07
1.47571e+07
1.47545e+07
1.47519e+07
1.47492e+07
1.47464e+07
1.47436e+07
1.47406e+07
1.47376e+07
1.47346e+07
1.47314e+07
1.47282e+07
1.47249e+07
1.47215e+07
)
;
    }
}


// ************************************************************************* //
