/*--------------------------------*- C++ -*----------------------------------*\
| =========                 |                                                 |
| \\      /  F ield         | OpenFOAM: The Open Source CFD Toolbox           |
|  \\    /   O peration     | Version:  2406                                  |
|   \\  /    A nd           | Website:  www.openfoam.com                      |
|    \\/     M anipulation  |                                                 |
\*---------------------------------------------------------------------------*/
FoamFile
{
    version     2.0;
    format      ascii;
    arch        "LSB;label=32;scalar=64";
    class       volScalarField;
    location    "0.6/fluidRegion";
    object      dgdt.vapour;
}
// * * * * * * * * * * * * * * * * * * * * * * * * * * * * * * * * * * * * * //

dimensions      [0 0 -1 0 0 0 0];

internalField   nonuniform List<scalar> 
75
(
-0
-0
-0
-0
-0
-0
-0
-0
-0
-0
-0
-0
-5.20921e-19
-1.00654e-17
-5.35927e-17
-9.33344e-17
-1.08941e-16
-1.17654e-16
-1.797e-16
-2.59905e-16
-3.54194e-16
-4.56277e-16
-5.58223e-16
-6.54105e-16
-7.42879e-16
-8.27543e-16
-9.10507e-16
-9.98074e-16
-1.08228e-15
-1.1713e-15
-1.2569e-15
-1.35104e-15
-1.43582e-15
-1.53264e-15
-1.63185e-15
-1.7249e-15
-1.82053e-15
-1.92233e-15
-2.02598e-15
-2.11876e-15
-2.22211e-15
-2.32756e-15
-5.57725e-14
-1.40235e-13
0.0217693
0.188757
0.34275
0.488873
0.628024
0.760496
0.887879
1.01118
1.13117
1.24837
1.36317
1.4758
1.58637
1.69488
1.80126
1.90536
2.00697
2.10584
2.20171
2.29428
2.38327
2.46843
2.58013
2.66039
2.72079
2.77045
2.80765
2.81647
2.82429
2.83148
2.84212
)
;

boundaryField
{
    inlet
    {
        type            calculated;
        value           uniform -0;
    }
    outlet
    {
        type            calculated;
        value           uniform 2.84212;
    }
    fixedWalls
    {
        type            calculated;
        value           nonuniform List<scalar> 
300
(
-0
-0
-0
-0
-0
-0
-0
-0
-0
-0
-0
-0
-5.20921e-19
-1.00654e-17
-5.35927e-17
-9.33344e-17
-1.08941e-16
-1.17654e-16
-1.797e-16
-2.59905e-16
-3.54194e-16
-4.56277e-16
-5.58223e-16
-6.54105e-16
-7.42879e-16
-8.27543e-16
-9.10507e-16
-9.98074e-16
-1.08228e-15
-1.1713e-15
-1.2569e-15
-1.35104e-15
-1.43582e-15
-1.53264e-15
-1.63185e-15
-1.7249e-15
-1.82053e-15
-1.92233e-15
-2.02598e-15
-2.11876e-15
-2.22211e-15
-2.32756e-15
-5.57725e-14
-1.40235e-13
0.0217693
0.188757
0.34275
0.488873
0.628024
0.760496
0.887879
1.01118
1.13117
1.24837
1.36317
1.4758
1.58637
1.69488
1.80126
1.90536
2.00697
2.10584
2.20171
2.29428
2.38327
2.46843
2.58013
2.66039
2.72079
2.77045
2.80765
2.81647
2.82429
2.83148
2.84212
-0
-0
-0
-0
-0
-0
-0
-0
-0
-0
-0
-0
-5.20921e-19
-1.00654e-17
-5.35927e-17
-9.33344e-17
-1.08941e-16
-1.17654e-16
-1.797e-16
-2.59905e-16
-3.54194e-16
-4.56277e-16
-5.58223e-16
-6.54105e-16
-7.42879e-16
-8.27543e-16
-9.10507e-16
-9.98074e-16
-1.08228e-15
-1.1713e-15
-1.2569e-15
-1.35104e-15
-1.43582e-15
-1.53264e-15
-1.63185e-15
-1.7249e-15
-1.82053e-15
-1.92233e-15
-2.02598e-15
-2.11876e-15
-2.22211e-15
-2.32756e-15
-5.57725e-14
-1.40235e-13
0.0217693
0.188757
0.34275
0.488873
0.628024
0.760496
0.887879
1.01118
1.13117
1.24837
1.36317
1.4758
1.58637
1.69488
1.80126
1.90536
2.00697
2.10584
2.20171
2.29428
2.38327
2.46843
2.58013
2.66039
2.72079
2.77045
2.80765
2.81647
2.82429
2.83148
2.84212
-0
-0
-0
-0
-0
-0
-0
-0
-0
-0
-0
-0
-5.20921e-19
-1.00654e-17
-5.35927e-17
-9.33344e-17
-1.08941e-16
-1.17654e-16
-1.797e-16
-2.59905e-16
-3.54194e-16
-4.56277e-16
-5.58223e-16
-6.54105e-16
-7.42879e-16
-8.27543e-16
-9.10507e-16
-9.98074e-16
-1.08228e-15
-1.1713e-15
-1.2569e-15
-1.35104e-15
-1.43582e-15
-1.53264e-15
-1.63185e-15
-1.7249e-15
-1.82053e-15
-1.92233e-15
-2.02598e-15
-2.11876e-15
-2.22211e-15
-2.32756e-15
-5.57725e-14
-1.40235e-13
0.0217693
0.188757
0.34275
0.488873
0.628024
0.760496
0.887879
1.01118
1.13117
1.24837
1.36317
1.4758
1.58637
1.69488
1.80126
1.90536
2.00697
2.10584
2.20171
2.29428
2.38327
2.46843
2.58013
2.66039
2.72079
2.77045
2.80765
2.81647
2.82429
2.83148
2.84212
-0
-0
-0
-0
-0
-0
-0
-0
-0
-0
-0
-0
-5.20921e-19
-1.00654e-17
-5.35927e-17
-9.33344e-17
-1.08941e-16
-1.17654e-16
-1.797e-16
-2.59905e-16
-3.54194e-16
-4.56277e-16
-5.58223e-16
-6.54105e-16
-7.42879e-16
-8.27543e-16
-9.10507e-16
-9.98074e-16
-1.08228e-15
-1.1713e-15
-1.2569e-15
-1.35104e-15
-1.43582e-15
-1.53264e-15
-1.63185e-15
-1.7249e-15
-1.82053e-15
-1.92233e-15
-2.02598e-15
-2.11876e-15
-2.22211e-15
-2.32756e-15
-5.57725e-14
-1.40235e-13
0.0217693
0.188757
0.34275
0.488873
0.628024
0.760496
0.887879
1.01118
1.13117
1.24837
1.36317
1.4758
1.58637
1.69488
1.80126
1.90536
2.00697
2.10584
2.20171
2.29428
2.38327
2.46843
2.58013
2.66039
2.72079
2.77045
2.80765
2.81647
2.82429
2.83148
2.84212
)
;
    }
}


// ************************************************************************* //
