/*--------------------------------*- C++ -*----------------------------------*\
| =========                 |                                                 |
| \\      /  F ield         | OpenFOAM: The Open Source CFD Toolbox           |
|  \\    /   O peration     | Version:  2406                                  |
|   \\  /    A nd           | Website:  www.openfoam.com                      |
|    \\/     M anipulation  |                                                 |
\*---------------------------------------------------------------------------*/
FoamFile
{
    version     2.0;
    format      ascii;
    arch        "LSB;label=32;scalar=64";
    class       volTensorField;
    location    "0.6/fluidRegion";
    object      Kd.liquid.structure;
}
// * * * * * * * * * * * * * * * * * * * * * * * * * * * * * * * * * * * * * //

dimensions      [1 -3 -1 0 0 0 0];

internalField   nonuniform List<tensor> 
75
(
(1136.21 0 0 0 1136.21 0 0 0 1136.21)
(1136.21 0 0 0 1136.21 0 0 0 1136.21)
(1136.21 0 0 0 1136.21 0 0 0 1136.21)
(1136.21 0 0 0 1136.21 0 0 0 1136.21)
(1136.2 0 0 0 1136.2 0 0 0 1136.2)
(1134.73 0 0 0 1134.73 0 0 0 1134.73)
(1134.04 0 0 0 1134.04 0 0 0 1134.04)
(1133.35 0 0 0 1133.35 0 0 0 1133.35)
(1132.66 0 0 0 1132.66 0 0 0 1132.66)
(1131.97 0 0 0 1131.97 0 0 0 1131.97)
(1131.27 0 0 0 1131.27 0 0 0 1131.27)
(1130.58 0 0 0 1130.58 0 0 0 1130.58)
(1129.88 0 0 0 1129.88 0 0 0 1129.88)
(1129.18 0 0 0 1129.18 0 0 0 1129.18)
(1128.49 0 0 0 1128.49 0 0 0 1128.49)
(1127.78 0 0 0 1127.78 0 0 0 1127.78)
(1127.08 0 0 0 1127.08 0 0 0 1127.08)
(1126.38 0 0 0 1126.38 0 0 0 1126.38)
(1125.67 0 0 0 1125.67 0 0 0 1125.67)
(1124.97 0 0 0 1124.97 0 0 0 1124.97)
(1124.26 0 0 0 1124.26 0 0 0 1124.26)
(1123.55 0 0 0 1123.55 0 0 0 1123.55)
(1122.84 0 0 0 1122.84 0 0 0 1122.84)
(1122.13 0 0 0 1122.13 0 0 0 1122.13)
(1121.41 0 0 0 1121.41 0 0 0 1121.41)
(1120.7 0 0 0 1120.7 0 0 0 1120.7)
(1119.98 0 0 0 1119.98 0 0 0 1119.98)
(1119.26 0 0 0 1119.26 0 0 0 1119.26)
(1118.54 0 0 0 1118.54 0 0 0 1118.54)
(1117.82 0 0 0 1117.82 0 0 0 1117.82)
(1117.1 0 0 0 1117.1 0 0 0 1117.1)
(1116.38 0 0 0 1116.38 0 0 0 1116.38)
(1115.65 0 0 0 1115.65 0 0 0 1115.65)
(1114.92 0 0 0 1114.92 0 0 0 1114.92)
(1114.19 0 0 0 1114.19 0 0 0 1114.19)
(1113.46 0 0 0 1113.46 0 0 0 1113.46)
(1112.73 0 0 0 1112.73 0 0 0 1112.73)
(1112 0 0 0 1112 0 0 0 1112)
(1111.26 0 0 0 1111.26 0 0 0 1111.26)
(1110.53 0 0 0 1110.53 0 0 0 1110.53)
(1109.79 0 0 0 1109.79 0 0 0 1109.79)
(1109.05 0 0 0 1109.05 0 0 0 1109.05)
(1108.31 0 0 0 1108.31 0 0 0 1108.31)
(1107.57 0 0 0 1107.57 0 0 0 1107.57)
(1111.23 0 0 0 1111.23 0 0 0 1111.23)
(1138.73 0 0 0 1138.73 0 0 0 1138.73)
(1185.24 0 0 0 1185.24 0 0 0 1185.24)
(1246.05 0 0 0 1246.05 0 0 0 1246.05)
(1318.24 0 0 0 1318.24 0 0 0 1318.24)
(1401.59 0 0 0 1401.59 0 0 0 1401.59)
(1494.47 0 0 0 1494.47 0 0 0 1494.47)
(1595.75 0 0 0 1595.75 0 0 0 1595.75)
(1704.49 0 0 0 1704.49 0 0 0 1704.49)
(1819.86 0 0 0 1819.86 0 0 0 1819.86)
(1941.16 0 0 0 1941.16 0 0 0 1941.16)
(2067.75 0 0 0 2067.75 0 0 0 2067.75)
(2199.04 0 0 0 2199.04 0 0 0 2199.04)
(2334.49 0 0 0 2334.49 0 0 0 2334.49)
(2473.6 0 0 0 2473.6 0 0 0 2473.6)
(2615.89 0 0 0 2615.89 0 0 0 2615.89)
(2760.91 0 0 0 2760.91 0 0 0 2760.91)
(2908.23 0 0 0 2908.23 0 0 0 2908.23)
(3057.44 0 0 0 3057.44 0 0 0 3057.44)
(3208.15 0 0 0 3208.15 0 0 0 3208.15)
(3359.99 0 0 0 3359.99 0 0 0 3359.99)
(3512.64 0 0 0 3512.64 0 0 0 3512.64)
(3667.17 0 0 0 3667.17 0 0 0 3667.17)
(3822.32 0 0 0 3822.32 0 0 0 3822.32)
(3976.76 0 0 0 3976.76 0 0 0 3976.76)
(4129.79 0 0 0 4129.79 0 0 0 4129.79)
(4280.84 0 0 0 4280.84 0 0 0 4280.84)
(4428.78 0 0 0 4428.78 0 0 0 4428.78)
(4573.41 0 0 0 4573.41 0 0 0 4573.41)
(4714.97 0 0 0 4714.97 0 0 0 4714.97)
(4852.96 0 0 0 4852.96 0 0 0 4852.96)
)
;

boundaryField
{
    inlet
    {
        type            zeroGradient;
    }
    outlet
    {
        type            zeroGradient;
    }
    fixedWalls
    {
        type            zeroGradient;
    }
}


// ************************************************************************* //
