/*--------------------------------*- C++ -*----------------------------------*\
| =========                 |                                                 |
| \\      /  F ield         | OpenFOAM: The Open Source CFD Toolbox           |
|  \\    /   O peration     | Version:  2406                                  |
|   \\  /    A nd           | Website:  www.openfoam.com                      |
|    \\/     M anipulation  |                                                 |
\*---------------------------------------------------------------------------*/
FoamFile
{
    version     2.0;
    format      ascii;
    arch        "LSB;label=32;scalar=64";
    class       volTensorField;
    location    "0.6/fluidRegion";
    object      KdTotU;
}
// * * * * * * * * * * * * * * * * * * * * * * * * * * * * * * * * * * * * * //

dimensions      [1 -2 -2 0 0 0 0];

internalField   nonuniform List<tensor> 
75
(
(5075.56 0 0 0 5075.56 0 0 0 5075.56)
(5075.53 0 0 0 5075.53 0 0 0 5075.53)
(5075.51 0 0 0 5075.51 0 0 0 5075.51)
(5075.49 0 0 0 5075.49 0 0 0 5075.49)
(5075.46 0 0 0 5075.46 0 0 0 5075.46)
(5073.58 0 0 0 5073.58 0 0 0 5073.58)
(5079.97 0 0 0 5079.97 0 0 0 5079.97)
(5086.41 0 0 0 5086.41 0 0 0 5086.41)
(5092.9 0 0 0 5092.9 0 0 0 5092.9)
(5099.43 0 0 0 5099.43 0 0 0 5099.43)
(5106.02 0 0 0 5106.02 0 0 0 5106.02)
(5112.64 0 0 0 5112.64 0 0 0 5112.64)
(5119.31 0 0 0 5119.31 0 0 0 5119.31)
(5126.02 0 0 0 5126.02 0 0 0 5126.02)
(5132.78 0 0 0 5132.78 0 0 0 5132.78)
(5139.58 0 0 0 5139.58 0 0 0 5139.58)
(5146.42 0 0 0 5146.42 0 0 0 5146.42)
(5153.3 0 0 0 5153.3 0 0 0 5153.3)
(5160.21 0 0 0 5160.21 0 0 0 5160.21)
(5167.17 0 0 0 5167.17 0 0 0 5167.17)
(5174.17 0 0 0 5174.17 0 0 0 5174.17)
(5181.2 0 0 0 5181.2 0 0 0 5181.2)
(5188.27 0 0 0 5188.27 0 0 0 5188.27)
(5195.37 0 0 0 5195.37 0 0 0 5195.37)
(5202.51 0 0 0 5202.51 0 0 0 5202.51)
(5209.68 0 0 0 5209.68 0 0 0 5209.68)
(5216.88 0 0 0 5216.88 0 0 0 5216.88)
(5224.12 0 0 0 5224.12 0 0 0 5224.12)
(5231.38 0 0 0 5231.38 0 0 0 5231.38)
(5238.68 0 0 0 5238.68 0 0 0 5238.68)
(5246 0 0 0 5246 0 0 0 5246)
(5253.35 0 0 0 5253.35 0 0 0 5253.35)
(5260.73 0 0 0 5260.73 0 0 0 5260.73)
(5268.14 0 0 0 5268.14 0 0 0 5268.14)
(5275.57 0 0 0 5275.57 0 0 0 5275.57)
(5283.03 0 0 0 5283.03 0 0 0 5283.03)
(5290.51 0 0 0 5290.51 0 0 0 5290.51)
(5298.01 0 0 0 5298.01 0 0 0 5298.01)
(5305.53 0 0 0 5305.53 0 0 0 5305.53)
(5313.08 0 0 0 5313.08 0 0 0 5313.08)
(5320.64 0 0 0 5320.64 0 0 0 5320.64)
(5328.23 0 0 0 5328.23 0 0 0 5328.23)
(5335.83 0 0 0 5335.83 0 0 0 5335.83)
(5343.46 0 0 0 5343.46 0 0 0 5343.46)
(5372.92 0 0 0 5372.92 0 0 0 5372.92)
(5521.94 0 0 0 5521.94 0 0 0 5521.94)
(5770.89 0 0 0 5770.89 0 0 0 5770.89)
(6097.8 0 0 0 6097.8 0 0 0 6097.8)
(6489.61 0 0 0 6489.61 0 0 0 6489.61)
(6946.21 0 0 0 6946.21 0 0 0 6946.21)
(7461.08 0 0 0 7461.08 0 0 0 7461.08)
(8030.17 0 0 0 8030.17 0 0 0 8030.17)
(8650.13 0 0 0 8650.13 0 0 0 8650.13)
(9318.34 0 0 0 9318.34 0 0 0 9318.34)
(10032.5 0 0 0 10032.5 0 0 0 10032.5)
(10790.8 0 0 0 10790.8 0 0 0 10790.8)
(11591.1 0 0 0 11591.1 0 0 0 11591.1)
(12432 0 0 0 12432 0 0 0 12432)
(13311.5 0 0 0 13311.5 0 0 0 13311.5)
(14228.1 0 0 0 14228.1 0 0 0 14228.1)
(15179.9 0 0 0 15179.9 0 0 0 15179.9)
(16165.2 0 0 0 16165.2 0 0 0 16165.2)
(17182.1 0 0 0 17182.1 0 0 0 17182.1)
(18228.7 0 0 0 18228.7 0 0 0 18228.7)
(19302.9 0 0 0 19302.9 0 0 0 19302.9)
(20402.9 0 0 0 20402.9 0 0 0 20402.9)
(21535.9 0 0 0 21535.9 0 0 0 21535.9)
(22694.3 0 0 0 22694.3 0 0 0 22694.3)
(23868.2 0 0 0 23868.2 0 0 0 23868.2)
(25052.1 0 0 0 25052.1 0 0 0 25052.1)
(26240.7 0 0 0 26240.7 0 0 0 26240.7)
(27424.8 0 0 0 27424.8 0 0 0 27424.8)
(28601 0 0 0 28601 0 0 0 28601)
(29770.9 0 0 0 29770.9 0 0 0 29770.9)
(30916.2 0 0 0 30916.2 0 0 0 30916.2)
)
;

boundaryField
{
    inlet
    {
        type            zeroGradient;
    }
    outlet
    {
        type            zeroGradient;
    }
    fixedWalls
    {
        type            zeroGradient;
    }
}


// ************************************************************************* //
