/*--------------------------------*- C++ -*----------------------------------*\
| =========                 |                                                 |
| \\      /  F ield         | OpenFOAM: The Open Source CFD Toolbox           |
|  \\    /   O peration     | Version:  2406                                  |
|   \\  /    A nd           | Website:  www.openfoam.com                      |
|    \\/     M anipulation  |                                                 |
\*---------------------------------------------------------------------------*/
FoamFile
{
    version     2.0;
    format      ascii;
    arch        "LSB;label=32;scalar=64";
    class       volScalarField;
    location    "0.6/fluidRegion";
    object      p;
}
// * * * * * * * * * * * * * * * * * * * * * * * * * * * * * * * * * * * * * //

dimensions      [1 -1 -2 0 0 0 0];

internalField   nonuniform List<scalar> 
75
(
1.47621e+07
1.47618e+07
1.47616e+07
1.47614e+07
1.47611e+07
1.47609e+07
1.47606e+07
1.47603e+07
1.47601e+07
1.47598e+07
1.47595e+07
1.47592e+07
1.47589e+07
1.47586e+07
1.47583e+07
1.47581e+07
1.47578e+07
1.47575e+07
1.47572e+07
1.47569e+07
1.47566e+07
1.47563e+07
1.47561e+07
1.47558e+07
1.47555e+07
1.47552e+07
1.47549e+07
1.47546e+07
1.47543e+07
1.4754e+07
1.47537e+07
1.47534e+07
1.47532e+07
1.47529e+07
1.47526e+07
1.47523e+07
1.4752e+07
1.47517e+07
1.47514e+07
1.47511e+07
1.47508e+07
1.47505e+07
1.47502e+07
1.47499e+07
1.47496e+07
1.47493e+07
1.4749e+07
1.47486e+07
1.47482e+07
1.47478e+07
1.47473e+07
1.47468e+07
1.47463e+07
1.47457e+07
1.4745e+07
1.47444e+07
1.47436e+07
1.47428e+07
1.4742e+07
1.47411e+07
1.47402e+07
1.47392e+07
1.47381e+07
1.4737e+07
1.47359e+07
1.47346e+07
1.47333e+07
1.4732e+07
1.47305e+07
1.47291e+07
1.47275e+07
1.47259e+07
1.47242e+07
1.47225e+07
1.47207e+07
)
;

boundaryField
{
    inlet
    {
        type            calculated;
        value           uniform 1.47622e+07;
    }
    outlet
    {
        type            calculated;
        value           uniform 1.47198e+07;
    }
    fixedWalls
    {
        type            calculated;
        value           nonuniform List<scalar> 
300
(
1.47621e+07
1.47618e+07
1.47616e+07
1.47614e+07
1.47611e+07
1.47609e+07
1.47606e+07
1.47603e+07
1.47601e+07
1.47598e+07
1.47595e+07
1.47592e+07
1.47589e+07
1.47586e+07
1.47583e+07
1.47581e+07
1.47578e+07
1.47575e+07
1.47572e+07
1.47569e+07
1.47566e+07
1.47563e+07
1.47561e+07
1.47558e+07
1.47555e+07
1.47552e+07
1.47549e+07
1.47546e+07
1.47543e+07
1.4754e+07
1.47537e+07
1.47534e+07
1.47532e+07
1.47529e+07
1.47526e+07
1.47523e+07
1.4752e+07
1.47517e+07
1.47514e+07
1.47511e+07
1.47508e+07
1.47505e+07
1.47502e+07
1.47499e+07
1.47496e+07
1.47493e+07
1.4749e+07
1.47486e+07
1.47482e+07
1.47478e+07
1.47473e+07
1.47468e+07
1.47463e+07
1.47457e+07
1.4745e+07
1.47444e+07
1.47436e+07
1.47428e+07
1.4742e+07
1.47411e+07
1.47402e+07
1.47392e+07
1.47381e+07
1.4737e+07
1.47359e+07
1.47346e+07
1.47333e+07
1.4732e+07
1.47305e+07
1.47291e+07
1.47275e+07
1.47259e+07
1.47242e+07
1.47225e+07
1.47207e+07
1.47621e+07
1.47618e+07
1.47616e+07
1.47614e+07
1.47611e+07
1.47609e+07
1.47606e+07
1.47603e+07
1.47601e+07
1.47598e+07
1.47595e+07
1.47592e+07
1.47589e+07
1.47586e+07
1.47583e+07
1.47581e+07
1.47578e+07
1.47575e+07
1.47572e+07
1.47569e+07
1.47566e+07
1.47563e+07
1.47561e+07
1.47558e+07
1.47555e+07
1.47552e+07
1.47549e+07
1.47546e+07
1.47543e+07
1.4754e+07
1.47537e+07
1.47534e+07
1.47532e+07
1.47529e+07
1.47526e+07
1.47523e+07
1.4752e+07
1.47517e+07
1.47514e+07
1.47511e+07
1.47508e+07
1.47505e+07
1.47502e+07
1.47499e+07
1.47496e+07
1.47493e+07
1.4749e+07
1.47486e+07
1.47482e+07
1.47478e+07
1.47473e+07
1.47468e+07
1.47463e+07
1.47457e+07
1.4745e+07
1.47444e+07
1.47436e+07
1.47428e+07
1.4742e+07
1.47411e+07
1.47402e+07
1.47392e+07
1.47381e+07
1.4737e+07
1.47359e+07
1.47346e+07
1.47333e+07
1.4732e+07
1.47305e+07
1.47291e+07
1.47275e+07
1.47259e+07
1.47242e+07
1.47225e+07
1.47207e+07
1.47621e+07
1.47618e+07
1.47616e+07
1.47614e+07
1.47611e+07
1.47609e+07
1.47606e+07
1.47603e+07
1.47601e+07
1.47598e+07
1.47595e+07
1.47592e+07
1.47589e+07
1.47586e+07
1.47583e+07
1.47581e+07
1.47578e+07
1.47575e+07
1.47572e+07
1.47569e+07
1.47566e+07
1.47563e+07
1.47561e+07
1.47558e+07
1.47555e+07
1.47552e+07
1.47549e+07
1.47546e+07
1.47543e+07
1.4754e+07
1.47537e+07
1.47534e+07
1.47532e+07
1.47529e+07
1.47526e+07
1.47523e+07
1.4752e+07
1.47517e+07
1.47514e+07
1.47511e+07
1.47508e+07
1.47505e+07
1.47502e+07
1.47499e+07
1.47496e+07
1.47493e+07
1.4749e+07
1.47486e+07
1.47482e+07
1.47478e+07
1.47473e+07
1.47468e+07
1.47463e+07
1.47457e+07
1.4745e+07
1.47444e+07
1.47436e+07
1.47428e+07
1.4742e+07
1.47411e+07
1.47402e+07
1.47392e+07
1.47381e+07
1.4737e+07
1.47359e+07
1.47346e+07
1.47333e+07
1.4732e+07
1.47305e+07
1.47291e+07
1.47275e+07
1.47259e+07
1.47242e+07
1.47225e+07
1.47207e+07
1.47621e+07
1.47618e+07
1.47616e+07
1.47614e+07
1.47611e+07
1.47609e+07
1.47606e+07
1.47603e+07
1.47601e+07
1.47598e+07
1.47595e+07
1.47592e+07
1.47589e+07
1.47586e+07
1.47583e+07
1.47581e+07
1.47578e+07
1.47575e+07
1.47572e+07
1.47569e+07
1.47566e+07
1.47563e+07
1.47561e+07
1.47558e+07
1.47555e+07
1.47552e+07
1.47549e+07
1.47546e+07
1.47543e+07
1.4754e+07
1.47537e+07
1.47534e+07
1.47532e+07
1.47529e+07
1.47526e+07
1.47523e+07
1.4752e+07
1.47517e+07
1.47514e+07
1.47511e+07
1.47508e+07
1.47505e+07
1.47502e+07
1.47499e+07
1.47496e+07
1.47493e+07
1.4749e+07
1.47486e+07
1.47482e+07
1.47478e+07
1.47473e+07
1.47468e+07
1.47463e+07
1.47457e+07
1.4745e+07
1.47444e+07
1.47436e+07
1.47428e+07
1.4742e+07
1.47411e+07
1.47402e+07
1.47392e+07
1.47381e+07
1.4737e+07
1.47359e+07
1.47346e+07
1.47333e+07
1.4732e+07
1.47305e+07
1.47291e+07
1.47275e+07
1.47259e+07
1.47242e+07
1.47225e+07
1.47207e+07
)
;
    }
}


// ************************************************************************* //
