/*--------------------------------*- C++ -*----------------------------------*\
| =========                 |                                                 |
| \\      /  F ield         | OpenFOAM: The Open Source CFD Toolbox           |
|  \\    /   O peration     | Version:  2406                                  |
|   \\  /    A nd           | Website:  www.openfoam.com                      |
|    \\/     M anipulation  |                                                 |
\*---------------------------------------------------------------------------*/
FoamFile
{
    version     2.0;
    format      ascii;
    arch        "LSB;label=32;scalar=64";
    class       volScalarField;
    location    "30/fluidRegion";
    object      alphaRhoMagU.vapour;
}
// * * * * * * * * * * * * * * * * * * * * * * * * * * * * * * * * * * * * * //

dimensions      [1 -2 -1 0 0 0 0];

internalField   nonuniform List<scalar> 
70
(
0
0
0
0
0
0
0
0
0
0
0
0
0
0
0
0
0.0259698
0.0970935
0.201653
0.341128
0.515369
0.726325
0.976522
1.26915
1.60774
1.99594
2.43727
2.93487
3.4912
4.10778
4.78501
5.52197
6.31641
7.16456
8.05756
8.98615
9.92361
10.8631
11.8045
12.7485
13.6954
14.6455
15.5988
16.5555
17.5156
18.4792
19.4462
20.4167
21.3905
22.3678
23.3484
24.3323
25.3195
26.3098
27.3033
28.2999
29.2995
30.3021
31.3076
32.3159
33.3269
34.3407
35.357
36.3759
37.3973
38.4212
39.4473
40.4759
41.5063
42.5486
)
;

boundaryField
{
    inlet
    {
        type            calculated;
        value           uniform 0;
    }
    outlet
    {
        type            calculated;
        value           uniform 42.5473;
    }
    fixedWalls
    {
        type            calculated;
        value           nonuniform List<scalar> 
280
(
0
0
0
0
0
0
0
0
0
0
0
0
0
0
0
0
0.0259698
0.0970935
0.201653
0.341128
0.515369
0.726325
0.976522
1.26915
1.60774
1.99594
2.43727
2.93487
3.4912
4.10778
4.78501
5.52197
6.31641
7.16456
8.05756
8.98615
9.92361
10.8631
11.8045
12.7485
13.6954
14.6455
15.5988
16.5555
17.5156
18.4792
19.4462
20.4167
21.3905
22.3678
23.3484
24.3323
25.3195
26.3098
27.3033
28.2999
29.2995
30.3021
31.3076
32.3159
33.3269
34.3407
35.357
36.3759
37.3973
38.4212
39.4473
40.4759
41.5063
42.5486
0
0
0
0
0
0
0
0
0
0
0
0
0
0
0
0
0.0259698
0.0970935
0.201653
0.341128
0.515369
0.726325
0.976522
1.26915
1.60774
1.99594
2.43727
2.93487
3.4912
4.10778
4.78501
5.52197
6.31641
7.16456
8.05756
8.98615
9.92361
10.8631
11.8045
12.7485
13.6954
14.6455
15.5988
16.5555
17.5156
18.4792
19.4462
20.4167
21.3905
22.3678
23.3484
24.3323
25.3195
26.3098
27.3033
28.2999
29.2995
30.3021
31.3076
32.3159
33.3269
34.3407
35.357
36.3759
37.3973
38.4212
39.4473
40.4759
41.5063
42.5486
0
0
0
0
0
0
0
0
0
0
0
0
0
0
0
0
0.0259698
0.0970935
0.201653
0.341128
0.515369
0.726325
0.976522
1.26915
1.60774
1.99594
2.43727
2.93487
3.4912
4.10778
4.78501
5.52197
6.31641
7.16456
8.05756
8.98615
9.92361
10.8631
11.8045
12.7485
13.6954
14.6455
15.5988
16.5555
17.5156
18.4792
19.4462
20.4167
21.3905
22.3678
23.3484
24.3323
25.3195
26.3098
27.3033
28.2999
29.2995
30.3021
31.3076
32.3159
33.3269
34.3407
35.357
36.3759
37.3973
38.4212
39.4473
40.4759
41.5063
42.5486
0
0
0
0
0
0
0
0
0
0
0
0
0
0
0
0
0.0259698
0.0970935
0.201653
0.341128
0.515369
0.726325
0.976522
1.26915
1.60774
1.99594
2.43727
2.93487
3.4912
4.10778
4.78501
5.52197
6.31641
7.16456
8.05756
8.98615
9.92361
10.8631
11.8045
12.7485
13.6954
14.6455
15.5988
16.5555
17.5156
18.4792
19.4462
20.4167
21.3905
22.3678
23.3484
24.3323
25.3195
26.3098
27.3033
28.2999
29.2995
30.3021
31.3076
32.3159
33.3269
34.3407
35.357
36.3759
37.3973
38.4212
39.4473
40.4759
41.5063
42.5486
)
;
    }
}


// ************************************************************************* //
