/*--------------------------------*- C++ -*----------------------------------*\
| =========                 |                                                 |
| \\      /  F ield         | OpenFOAM: The Open Source CFD Toolbox           |
|  \\    /   O peration     | Version:  2406                                  |
|   \\  /    A nd           | Website:  www.openfoam.com                      |
|    \\/     M anipulation  |                                                 |
\*---------------------------------------------------------------------------*/
FoamFile
{
    version     2.0;
    format      ascii;
    arch        "LSB;label=32;scalar=64";
    class       volScalarField;
    location    "30/fluidRegion";
    object      dgdt.vapour;
}
// * * * * * * * * * * * * * * * * * * * * * * * * * * * * * * * * * * * * * //

dimensions      [0 0 -1 0 0 0 0];

internalField   nonuniform List<scalar> 
70
(
-0
-0
-0
-0
-0
-0
-0
-0
-0
-0
-0
-0
-0
-0
-0
-0
0.0516955
0.11292
0.170374
0.226085
0.282991
0.342912
0.407242
0.47694
0.552594
0.634406
0.722157
0.815172
0.912302
1.01194
1.11211
1.21058
1.30506
1.39341
1.46496
1.52358
1.52841
1.53065
1.53409
1.53827
1.54293
1.54791
1.55311
1.55844
1.56386
1.56932
1.57481
1.58029
1.58575
1.59117
1.59654
1.60185
1.60709
1.61226
1.61735
1.62235
1.62727
1.6321
1.63684
1.64149
1.64604
1.6505
1.65487
1.65914
1.66332
1.66741
1.67141
1.67532
1.67992
1.68934
)
;

boundaryField
{
    inlet
    {
        type            calculated;
        value           uniform -0;
    }
    outlet
    {
        type            calculated;
        value           uniform 1.68934;
    }
    fixedWalls
    {
        type            calculated;
        value           nonuniform List<scalar> 
280
(
-0
-0
-0
-0
-0
-0
-0
-0
-0
-0
-0
-0
-0
-0
-0
-0
0.0516955
0.11292
0.170374
0.226085
0.282991
0.342912
0.407242
0.47694
0.552594
0.634406
0.722157
0.815172
0.912302
1.01194
1.11211
1.21058
1.30506
1.39341
1.46496
1.52358
1.52841
1.53065
1.53409
1.53827
1.54293
1.54791
1.55311
1.55844
1.56386
1.56932
1.57481
1.58029
1.58575
1.59117
1.59654
1.60185
1.60709
1.61226
1.61735
1.62235
1.62727
1.6321
1.63684
1.64149
1.64604
1.6505
1.65487
1.65914
1.66332
1.66741
1.67141
1.67532
1.67992
1.68934
-0
-0
-0
-0
-0
-0
-0
-0
-0
-0
-0
-0
-0
-0
-0
-0
0.0516955
0.11292
0.170374
0.226085
0.282991
0.342912
0.407242
0.47694
0.552594
0.634406
0.722157
0.815172
0.912302
1.01194
1.11211
1.21058
1.30506
1.39341
1.46496
1.52358
1.52841
1.53065
1.53409
1.53827
1.54293
1.54791
1.55311
1.55844
1.56386
1.56932
1.57481
1.58029
1.58575
1.59117
1.59654
1.60185
1.60709
1.61226
1.61735
1.62235
1.62727
1.6321
1.63684
1.64149
1.64604
1.6505
1.65487
1.65914
1.66332
1.66741
1.67141
1.67532
1.67992
1.68934
-0
-0
-0
-0
-0
-0
-0
-0
-0
-0
-0
-0
-0
-0
-0
-0
0.0516955
0.11292
0.170374
0.226085
0.282991
0.342912
0.407242
0.47694
0.552594
0.634406
0.722157
0.815172
0.912302
1.01194
1.11211
1.21058
1.30506
1.39341
1.46496
1.52358
1.52841
1.53065
1.53409
1.53827
1.54293
1.54791
1.55311
1.55844
1.56386
1.56932
1.57481
1.58029
1.58575
1.59117
1.59654
1.60185
1.60709
1.61226
1.61735
1.62235
1.62727
1.6321
1.63684
1.64149
1.64604
1.6505
1.65487
1.65914
1.66332
1.66741
1.67141
1.67532
1.67992
1.68934
-0
-0
-0
-0
-0
-0
-0
-0
-0
-0
-0
-0
-0
-0
-0
-0
0.0516955
0.11292
0.170374
0.226085
0.282991
0.342912
0.407242
0.47694
0.552594
0.634406
0.722157
0.815172
0.912302
1.01194
1.11211
1.21058
1.30506
1.39341
1.46496
1.52358
1.52841
1.53065
1.53409
1.53827
1.54293
1.54791
1.55311
1.55844
1.56386
1.56932
1.57481
1.58029
1.58575
1.59117
1.59654
1.60185
1.60709
1.61226
1.61735
1.62235
1.62727
1.6321
1.63684
1.64149
1.64604
1.6505
1.65487
1.65914
1.66332
1.66741
1.67141
1.67532
1.67992
1.68934
)
;
    }
}


// ************************************************************************* //
