/*--------------------------------*- C++ -*----------------------------------*\
| =========                 |                                                 |
| \\      /  F ield         | OpenFOAM: The Open Source CFD Toolbox           |
|  \\    /   O peration     | Version:  2406                                  |
|   \\  /    A nd           | Website:  www.openfoam.com                      |
|    \\/     M anipulation  |                                                 |
\*---------------------------------------------------------------------------*/
FoamFile
{
    version     2.0;
    format      ascii;
    arch        "LSB;label=32;scalar=64";
    class       volTensorField;
    location    "30/fluidRegion";
    object      Kd.liquid.structure;
}
// * * * * * * * * * * * * * * * * * * * * * * * * * * * * * * * * * * * * * //

dimensions      [1 -3 -1 0 0 0 0];

internalField   nonuniform List<tensor> 
70
(
(418.057 0 0 0 418.057 0 0 0 418.057)
(417.687 0 0 0 417.687 0 0 0 417.687)
(417.321 0 0 0 417.321 0 0 0 417.321)
(416.958 0 0 0 416.958 0 0 0 416.958)
(416.599 0 0 0 416.599 0 0 0 416.599)
(416.243 0 0 0 416.243 0 0 0 416.243)
(415.89 0 0 0 415.89 0 0 0 415.89)
(415.541 0 0 0 415.541 0 0 0 415.541)
(415.195 0 0 0 415.195 0 0 0 415.195)
(414.852 0 0 0 414.852 0 0 0 414.852)
(414.512 0 0 0 414.512 0 0 0 414.512)
(414.175 0 0 0 414.175 0 0 0 414.175)
(413.841 0 0 0 413.841 0 0 0 413.841)
(413.51 0 0 0 413.51 0 0 0 413.51)
(413.182 0 0 0 413.182 0 0 0 413.182)
(412.856 0 0 0 412.856 0 0 0 412.856)
(418.39 0 0 0 418.39 0 0 0 418.39)
(431.744 0 0 0 431.744 0 0 0 431.744)
(449.614 0 0 0 449.614 0 0 0 449.614)
(471.942 0 0 0 471.942 0 0 0 471.942)
(498.36 0 0 0 498.36 0 0 0 498.36)
(528.85 0 0 0 528.85 0 0 0 528.85)
(563.452 0 0 0 563.452 0 0 0 563.452)
(602.262 0 0 0 602.262 0 0 0 602.262)
(645.378 0 0 0 645.378 0 0 0 645.378)
(692.867 0 0 0 692.867 0 0 0 692.867)
(744.743 0 0 0 744.743 0 0 0 744.743)
(800.935 0 0 0 800.935 0 0 0 800.935)
(861.279 0 0 0 861.279 0 0 0 861.279)
(925.5 0 0 0 925.5 0 0 0 925.5)
(993.22 0 0 0 993.22 0 0 0 993.22)
(1063.96 0 0 0 1063.96 0 0 0 1063.96)
(1137.18 0 0 0 1137.18 0 0 0 1137.18)
(1212.26 0 0 0 1212.26 0 0 0 1212.26)
(1288.24 0 0 0 1288.24 0 0 0 1288.24)
(1364.29 0 0 0 1364.29 0 0 0 1364.29)
(1438.35 0 0 0 1438.35 0 0 0 1438.35)
(1509.94 0 0 0 1509.94 0 0 0 1509.94)
(1579.26 0 0 0 1579.26 0 0 0 1579.26)
(1646.57 0 0 0 1646.57 0 0 0 1646.57)
(1712.06 0 0 0 1712.06 0 0 0 1712.06)
(1775.89 0 0 0 1775.89 0 0 0 1775.89)
(1838.2 0 0 0 1838.2 0 0 0 1838.2)
(1899.11 0 0 0 1899.11 0 0 0 1899.11)
(1958.73 0 0 0 1958.73 0 0 0 1958.73)
(2017.15 0 0 0 2017.15 0 0 0 2017.15)
(2074.46 0 0 0 2074.46 0 0 0 2074.46)
(2130.73 0 0 0 2130.73 0 0 0 2130.73)
(2186.03 0 0 0 2186.03 0 0 0 2186.03)
(2240.41 0 0 0 2240.41 0 0 0 2240.41)
(2293.95 0 0 0 2293.95 0 0 0 2293.95)
(2346.68 0 0 0 2346.68 0 0 0 2346.68)
(2398.65 0 0 0 2398.65 0 0 0 2398.65)
(2449.91 0 0 0 2449.91 0 0 0 2449.91)
(2500.49 0 0 0 2500.49 0 0 0 2500.49)
(2550.43 0 0 0 2550.43 0 0 0 2550.43)
(2599.77 0 0 0 2599.77 0 0 0 2599.77)
(2648.53 0 0 0 2648.53 0 0 0 2648.53)
(2696.74 0 0 0 2696.74 0 0 0 2696.74)
(2744.43 0 0 0 2744.43 0 0 0 2744.43)
(2791.63 0 0 0 2791.63 0 0 0 2791.63)
(2838.35 0 0 0 2838.35 0 0 0 2838.35)
(2884.62 0 0 0 2884.62 0 0 0 2884.62)
(2930.46 0 0 0 2930.46 0 0 0 2930.46)
(2975.89 0 0 0 2975.89 0 0 0 2975.89)
(3020.91 0 0 0 3020.91 0 0 0 3020.91)
(3065.56 0 0 0 3065.56 0 0 0 3065.56)
(3109.84 0 0 0 3109.84 0 0 0 3109.84)
(3153.81 0 0 0 3153.81 0 0 0 3153.81)
(3197.3 0 0 0 3197.3 0 0 0 3197.3)
)
;

boundaryField
{
    inlet
    {
        type            zeroGradient;
    }
    outlet
    {
        type            zeroGradient;
    }
    fixedWalls
    {
        type            zeroGradient;
    }
}


// ************************************************************************* //
