/*--------------------------------*- C++ -*----------------------------------*\
| =========                 |                                                 |
| \\      /  F ield         | OpenFOAM: The Open Source CFD Toolbox           |
|  \\    /   O peration     | Version:  2406                                  |
|   \\  /    A nd           | Website:  www.openfoam.com                      |
|    \\/     M anipulation  |                                                 |
\*---------------------------------------------------------------------------*/
FoamFile
{
    version     2.0;
    format      ascii;
    arch        "LSB;label=32;scalar=64";
    class       volTensorField;
    location    "30/fluidRegion";
    object      KdTotU;
}
// * * * * * * * * * * * * * * * * * * * * * * * * * * * * * * * * * * * * * //

dimensions      [1 -2 -2 0 0 0 0];

internalField   nonuniform List<tensor> 
70
(
(539.053 0 0 0 539.053 0 0 0 539.053)
(538.879 0 0 0 538.879 0 0 0 538.879)
(538.722 0 0 0 538.722 0 0 0 538.722)
(538.584 0 0 0 538.584 0 0 0 538.584)
(538.462 0 0 0 538.462 0 0 0 538.462)
(538.358 0 0 0 538.358 0 0 0 538.358)
(538.27 0 0 0 538.27 0 0 0 538.27)
(538.2 0 0 0 538.2 0 0 0 538.2)
(538.146 0 0 0 538.146 0 0 0 538.146)
(538.109 0 0 0 538.109 0 0 0 538.109)
(538.088 0 0 0 538.088 0 0 0 538.088)
(538.083 0 0 0 538.083 0 0 0 538.083)
(538.094 0 0 0 538.094 0 0 0 538.094)
(538.121 0 0 0 538.121 0 0 0 538.121)
(538.164 0 0 0 538.164 0 0 0 538.164)
(538.222 0 0 0 538.222 0 0 0 538.222)
(546.21 0 0 0 546.21 0 0 0 546.21)
(564.978 0 0 0 564.978 0 0 0 564.978)
(590.241 0 0 0 590.241 0 0 0 590.241)
(622.004 0 0 0 622.004 0 0 0 622.004)
(659.915 0 0 0 659.915 0 0 0 659.915)
(704.119 0 0 0 704.119 0 0 0 704.119)
(754.878 0 0 0 754.878 0 0 0 754.878)
(812.573 0 0 0 812.573 0 0 0 812.573)
(877.63 0 0 0 877.63 0 0 0 877.63)
(950.479 0 0 0 950.479 0 0 0 950.479)
(1031.51 0 0 0 1031.51 0 0 0 1031.51)
(1121.02 0 0 0 1121.02 0 0 0 1121.02)
(1219.2 0 0 0 1219.2 0 0 0 1219.2)
(1326.08 0 0 0 1326.08 0 0 0 1326.08)
(1441.5 0 0 0 1441.5 0 0 0 1441.5)
(1565.1 0 0 0 1565.1 0 0 0 1565.1)
(1696.36 0 0 0 1696.36 0 0 0 1696.36)
(1834.51 0 0 0 1834.51 0 0 0 1834.51)
(1978.12 0 0 0 1978.12 0 0 0 1978.12)
(2125.67 0 0 0 2125.67 0 0 0 2125.67)
(2273.29 0 0 0 2273.29 0 0 0 2273.29)
(2419.58 0 0 0 2419.58 0 0 0 2419.58)
(2564.62 0 0 0 2564.62 0 0 0 2564.62)
(2708.63 0 0 0 2708.63 0 0 0 2708.63)
(2851.73 0 0 0 2851.73 0 0 0 2851.73)
(2994.02 0 0 0 2994.02 0 0 0 2994.02)
(3135.6 0 0 0 3135.6 0 0 0 3135.6)
(3276.52 0 0 0 3276.52 0 0 0 3276.52)
(3416.83 0 0 0 3416.83 0 0 0 3416.83)
(3556.58 0 0 0 3556.58 0 0 0 3556.58)
(3695.81 0 0 0 3695.81 0 0 0 3695.81)
(3834.55 0 0 0 3834.55 0 0 0 3834.55)
(3972.81 0 0 0 3972.81 0 0 0 3972.81)
(4110.62 0 0 0 4110.62 0 0 0 4110.62)
(4248 0 0 0 4248 0 0 0 4248)
(4384.97 0 0 0 4384.97 0 0 0 4384.97)
(4521.52 0 0 0 4521.52 0 0 0 4521.52)
(4657.68 0 0 0 4657.68 0 0 0 4657.68)
(4793.45 0 0 0 4793.45 0 0 0 4793.45)
(4928.84 0 0 0 4928.84 0 0 0 4928.84)
(5063.85 0 0 0 5063.85 0 0 0 5063.85)
(5198.49 0 0 0 5198.49 0 0 0 5198.49)
(5332.76 0 0 0 5332.76 0 0 0 5332.76)
(5466.67 0 0 0 5466.67 0 0 0 5466.67)
(5600.21 0 0 0 5600.21 0 0 0 5600.21)
(5733.4 0 0 0 5733.4 0 0 0 5733.4)
(5866.22 0 0 0 5866.22 0 0 0 5866.22)
(5998.69 0 0 0 5998.69 0 0 0 5998.69)
(6130.8 0 0 0 6130.8 0 0 0 6130.8)
(6262.55 0 0 0 6262.55 0 0 0 6262.55)
(6393.95 0 0 0 6393.95 0 0 0 6393.95)
(6525.01 0 0 0 6525.01 0 0 0 6525.01)
(6655.72 0 0 0 6655.72 0 0 0 6655.72)
(6786.59 0 0 0 6786.59 0 0 0 6786.59)
)
;

boundaryField
{
    inlet
    {
        type            zeroGradient;
    }
    outlet
    {
        type            zeroGradient;
    }
    fixedWalls
    {
        type            zeroGradient;
    }
}


// ************************************************************************* //
