/*--------------------------------*- C++ -*----------------------------------*\
| =========                 |                                                 |
| \\      /  F ield         | OpenFOAM: The Open Source CFD Toolbox           |
|  \\    /   O peration     | Version:  2406                                  |
|   \\  /    A nd           | Website:  www.openfoam.com                      |
|    \\/     M anipulation  |                                                 |
\*---------------------------------------------------------------------------*/
FoamFile
{
    version     2.0;
    format      ascii;
    arch        "LSB;label=32;scalar=64";
    class       volScalarField;
    location    "30/fluidRegion";
    object      p;
}
// * * * * * * * * * * * * * * * * * * * * * * * * * * * * * * * * * * * * * //

dimensions      [1 -1 -2 0 0 0 0];

internalField   nonuniform List<scalar> 
70
(
7.21798e+06
7.21779e+06
7.21759e+06
7.2174e+06
7.21721e+06
7.21702e+06
7.21683e+06
7.21664e+06
7.21645e+06
7.21626e+06
7.21607e+06
7.21589e+06
7.2157e+06
7.21551e+06
7.21532e+06
7.21513e+06
7.21494e+06
7.21475e+06
7.21456e+06
7.21436e+06
7.21417e+06
7.21397e+06
7.21377e+06
7.21357e+06
7.21336e+06
7.21315e+06
7.21294e+06
7.21273e+06
7.21251e+06
7.21229e+06
7.21206e+06
7.21183e+06
7.21159e+06
7.21135e+06
7.2111e+06
7.21084e+06
7.21059e+06
7.21032e+06
7.21006e+06
7.20978e+06
7.20951e+06
7.20923e+06
7.20894e+06
7.20865e+06
7.20836e+06
7.20806e+06
7.20776e+06
7.20745e+06
7.20713e+06
7.20682e+06
7.20649e+06
7.20617e+06
7.20583e+06
7.2055e+06
7.20515e+06
7.2048e+06
7.20445e+06
7.20409e+06
7.20373e+06
7.20336e+06
7.20299e+06
7.20261e+06
7.20223e+06
7.20184e+06
7.20145e+06
7.20105e+06
7.20064e+06
7.20023e+06
7.19982e+06
7.1994e+06
)
;

boundaryField
{
    inlet
    {
        type            calculated;
        value           uniform 7.21807e+06;
    }
    outlet
    {
        type            calculated;
        value           uniform 7.19918e+06;
    }
    fixedWalls
    {
        type            calculated;
        value           nonuniform List<scalar> 
280
(
7.21798e+06
7.21779e+06
7.21759e+06
7.2174e+06
7.21721e+06
7.21702e+06
7.21683e+06
7.21664e+06
7.21645e+06
7.21626e+06
7.21607e+06
7.21589e+06
7.2157e+06
7.21551e+06
7.21532e+06
7.21513e+06
7.21494e+06
7.21475e+06
7.21456e+06
7.21436e+06
7.21417e+06
7.21397e+06
7.21377e+06
7.21357e+06
7.21336e+06
7.21315e+06
7.21294e+06
7.21273e+06
7.21251e+06
7.21229e+06
7.21206e+06
7.21183e+06
7.21159e+06
7.21135e+06
7.2111e+06
7.21084e+06
7.21059e+06
7.21032e+06
7.21006e+06
7.20978e+06
7.20951e+06
7.20923e+06
7.20894e+06
7.20865e+06
7.20836e+06
7.20806e+06
7.20776e+06
7.20745e+06
7.20713e+06
7.20682e+06
7.20649e+06
7.20617e+06
7.20583e+06
7.2055e+06
7.20515e+06
7.2048e+06
7.20445e+06
7.20409e+06
7.20373e+06
7.20336e+06
7.20299e+06
7.20261e+06
7.20223e+06
7.20184e+06
7.20145e+06
7.20105e+06
7.20064e+06
7.20023e+06
7.19982e+06
7.1994e+06
7.21798e+06
7.21779e+06
7.21759e+06
7.2174e+06
7.21721e+06
7.21702e+06
7.21683e+06
7.21664e+06
7.21645e+06
7.21626e+06
7.21607e+06
7.21589e+06
7.2157e+06
7.21551e+06
7.21532e+06
7.21513e+06
7.21494e+06
7.21475e+06
7.21456e+06
7.21436e+06
7.21417e+06
7.21397e+06
7.21377e+06
7.21357e+06
7.21336e+06
7.21315e+06
7.21294e+06
7.21273e+06
7.21251e+06
7.21229e+06
7.21206e+06
7.21183e+06
7.21159e+06
7.21135e+06
7.2111e+06
7.21084e+06
7.21059e+06
7.21032e+06
7.21006e+06
7.20978e+06
7.20951e+06
7.20923e+06
7.20894e+06
7.20865e+06
7.20836e+06
7.20806e+06
7.20776e+06
7.20745e+06
7.20713e+06
7.20682e+06
7.20649e+06
7.20617e+06
7.20583e+06
7.2055e+06
7.20515e+06
7.2048e+06
7.20445e+06
7.20409e+06
7.20373e+06
7.20336e+06
7.20299e+06
7.20261e+06
7.20223e+06
7.20184e+06
7.20145e+06
7.20105e+06
7.20064e+06
7.20023e+06
7.19982e+06
7.1994e+06
7.21798e+06
7.21779e+06
7.21759e+06
7.2174e+06
7.21721e+06
7.21702e+06
7.21683e+06
7.21664e+06
7.21645e+06
7.21626e+06
7.21607e+06
7.21589e+06
7.2157e+06
7.21551e+06
7.21532e+06
7.21513e+06
7.21494e+06
7.21475e+06
7.21456e+06
7.21436e+06
7.21417e+06
7.21397e+06
7.21377e+06
7.21357e+06
7.21336e+06
7.21315e+06
7.21294e+06
7.21273e+06
7.21251e+06
7.21229e+06
7.21206e+06
7.21183e+06
7.21159e+06
7.21135e+06
7.2111e+06
7.21084e+06
7.21059e+06
7.21032e+06
7.21006e+06
7.20978e+06
7.20951e+06
7.20923e+06
7.20894e+06
7.20865e+06
7.20836e+06
7.20806e+06
7.20776e+06
7.20745e+06
7.20713e+06
7.20682e+06
7.20649e+06
7.20617e+06
7.20583e+06
7.2055e+06
7.20515e+06
7.2048e+06
7.20445e+06
7.20409e+06
7.20373e+06
7.20336e+06
7.20299e+06
7.20261e+06
7.20223e+06
7.20184e+06
7.20145e+06
7.20105e+06
7.20064e+06
7.20023e+06
7.19982e+06
7.1994e+06
7.21798e+06
7.21779e+06
7.21759e+06
7.2174e+06
7.21721e+06
7.21702e+06
7.21683e+06
7.21664e+06
7.21645e+06
7.21626e+06
7.21607e+06
7.21589e+06
7.2157e+06
7.21551e+06
7.21532e+06
7.21513e+06
7.21494e+06
7.21475e+06
7.21456e+06
7.21436e+06
7.21417e+06
7.21397e+06
7.21377e+06
7.21357e+06
7.21336e+06
7.21315e+06
7.21294e+06
7.21273e+06
7.21251e+06
7.21229e+06
7.21206e+06
7.21183e+06
7.21159e+06
7.21135e+06
7.2111e+06
7.21084e+06
7.21059e+06
7.21032e+06
7.21006e+06
7.20978e+06
7.20951e+06
7.20923e+06
7.20894e+06
7.20865e+06
7.20836e+06
7.20806e+06
7.20776e+06
7.20745e+06
7.20713e+06
7.20682e+06
7.20649e+06
7.20617e+06
7.20583e+06
7.2055e+06
7.20515e+06
7.2048e+06
7.20445e+06
7.20409e+06
7.20373e+06
7.20336e+06
7.20299e+06
7.20261e+06
7.20223e+06
7.20184e+06
7.20145e+06
7.20105e+06
7.20064e+06
7.20023e+06
7.19982e+06
7.1994e+06
)
;
    }
}


// ************************************************************************* //
