/*--------------------------------*- C++ -*----------------------------------*\
| =========                 |                                                 |
| \\      /  F ield         | OpenFOAM: The Open Source CFD Toolbox           |
|  \\    /   O peration     | Version:  2406                                  |
|   \\  /    A nd           | Website:  www.openfoam.com                      |
|    \\/     M anipulation  |                                                 |
\*---------------------------------------------------------------------------*/
FoamFile
{
    version     2.0;
    format      ascii;
    arch        "LSB;label=32;scalar=64";
    class       volScalarField;
    location    "0.6/fluidRegion";
    object      dgdt.vapour;
}
// * * * * * * * * * * * * * * * * * * * * * * * * * * * * * * * * * * * * * //

dimensions      [0 0 -1 0 0 0 0];

internalField   nonuniform List<scalar> 
70
(
-3.18944e-21
-8.31804e-20
-2.46742e-19
-2.48543e-19
-2.9649e-19
-2.77097e-19
-2.51378e-19
-2.32468e-19
-2.16769e-19
-2.02695e-19
-1.91568e-19
-1.81424e-19
-1.71592e-19
-1.63615e-19
-1.56901e-19
-1.514e-19
-1.46685e-19
-1.41774e-19
-1.37427e-19
-1.3333e-19
-1.29708e-19
-1.27124e-19
-1.23208e-19
-1.25829e-19
-1.35371e-19
-1.50418e-19
-1.69867e-19
-1.92927e-19
-2.18133e-19
-2.44185e-19
-2.71057e-19
-2.98189e-19
-2.30253e-16
-4.5176e-15
0.0572371
0.237848
0.404556
0.562633
0.712981
0.856235
0.994502
1.12883
1.26011
1.38894
1.51572
1.64068
1.7639
1.88533
2.0048
2.12209
2.23687
2.34878
2.45742
2.56241
2.67486
2.81918
2.91269
2.98395
3.04283
3.09364
3.13865
3.14769
3.1556
3.16308
3.1703
3.17735
3.1843
3.19119
3.19803
3.21133
)
;

boundaryField
{
    inlet
    {
        type            calculated;
        value           uniform -3.18944e-21;
    }
    outlet
    {
        type            calculated;
        value           uniform 3.21133;
    }
    fixedWalls
    {
        type            calculated;
        value           nonuniform List<scalar> 
280
(
-3.18944e-21
-8.31804e-20
-2.46742e-19
-2.48543e-19
-2.9649e-19
-2.77097e-19
-2.51378e-19
-2.32468e-19
-2.16769e-19
-2.02695e-19
-1.91568e-19
-1.81424e-19
-1.71592e-19
-1.63615e-19
-1.56901e-19
-1.514e-19
-1.46685e-19
-1.41774e-19
-1.37427e-19
-1.3333e-19
-1.29708e-19
-1.27124e-19
-1.23208e-19
-1.25829e-19
-1.35371e-19
-1.50418e-19
-1.69867e-19
-1.92927e-19
-2.18133e-19
-2.44185e-19
-2.71057e-19
-2.98189e-19
-2.30253e-16
-4.5176e-15
0.0572371
0.237848
0.404556
0.562633
0.712981
0.856235
0.994502
1.12883
1.26011
1.38894
1.51572
1.64068
1.7639
1.88533
2.0048
2.12209
2.23687
2.34878
2.45742
2.56241
2.67486
2.81918
2.91269
2.98395
3.04283
3.09364
3.13865
3.14769
3.1556
3.16308
3.1703
3.17735
3.1843
3.19119
3.19803
3.21133
-3.18944e-21
-8.31804e-20
-2.46742e-19
-2.48543e-19
-2.9649e-19
-2.77097e-19
-2.51378e-19
-2.32468e-19
-2.16769e-19
-2.02695e-19
-1.91568e-19
-1.81424e-19
-1.71592e-19
-1.63615e-19
-1.56901e-19
-1.514e-19
-1.46685e-19
-1.41774e-19
-1.37427e-19
-1.3333e-19
-1.29708e-19
-1.27124e-19
-1.23208e-19
-1.25829e-19
-1.35371e-19
-1.50418e-19
-1.69867e-19
-1.92927e-19
-2.18133e-19
-2.44185e-19
-2.71057e-19
-2.98189e-19
-2.30253e-16
-4.5176e-15
0.0572371
0.237848
0.404556
0.562633
0.712981
0.856235
0.994502
1.12883
1.26011
1.38894
1.51572
1.64068
1.7639
1.88533
2.0048
2.12209
2.23687
2.34878
2.45742
2.56241
2.67486
2.81918
2.91269
2.98395
3.04283
3.09364
3.13865
3.14769
3.1556
3.16308
3.1703
3.17735
3.1843
3.19119
3.19803
3.21133
-3.18944e-21
-8.31804e-20
-2.46742e-19
-2.48543e-19
-2.9649e-19
-2.77097e-19
-2.51378e-19
-2.32468e-19
-2.16769e-19
-2.02695e-19
-1.91568e-19
-1.81424e-19
-1.71592e-19
-1.63615e-19
-1.56901e-19
-1.514e-19
-1.46685e-19
-1.41774e-19
-1.37427e-19
-1.3333e-19
-1.29708e-19
-1.27124e-19
-1.23208e-19
-1.25829e-19
-1.35371e-19
-1.50418e-19
-1.69867e-19
-1.92927e-19
-2.18133e-19
-2.44185e-19
-2.71057e-19
-2.98189e-19
-2.30253e-16
-4.5176e-15
0.0572371
0.237848
0.404556
0.562633
0.712981
0.856235
0.994502
1.12883
1.26011
1.38894
1.51572
1.64068
1.7639
1.88533
2.0048
2.12209
2.23687
2.34878
2.45742
2.56241
2.67486
2.81918
2.91269
2.98395
3.04283
3.09364
3.13865
3.14769
3.1556
3.16308
3.1703
3.17735
3.1843
3.19119
3.19803
3.21133
-3.18944e-21
-8.31804e-20
-2.46742e-19
-2.48543e-19
-2.9649e-19
-2.77097e-19
-2.51378e-19
-2.32468e-19
-2.16769e-19
-2.02695e-19
-1.91568e-19
-1.81424e-19
-1.71592e-19
-1.63615e-19
-1.56901e-19
-1.514e-19
-1.46685e-19
-1.41774e-19
-1.37427e-19
-1.3333e-19
-1.29708e-19
-1.27124e-19
-1.23208e-19
-1.25829e-19
-1.35371e-19
-1.50418e-19
-1.69867e-19
-1.92927e-19
-2.18133e-19
-2.44185e-19
-2.71057e-19
-2.98189e-19
-2.30253e-16
-4.5176e-15
0.0572371
0.237848
0.404556
0.562633
0.712981
0.856235
0.994502
1.12883
1.26011
1.38894
1.51572
1.64068
1.7639
1.88533
2.0048
2.12209
2.23687
2.34878
2.45742
2.56241
2.67486
2.81918
2.91269
2.98395
3.04283
3.09364
3.13865
3.14769
3.1556
3.16308
3.1703
3.17735
3.1843
3.19119
3.19803
3.21133
)
;
    }
}


// ************************************************************************* //
