/*--------------------------------*- C++ -*----------------------------------*\
| =========                 |                                                 |
| \\      /  F ield         | OpenFOAM: The Open Source CFD Toolbox           |
|  \\    /   O peration     | Version:  2406                                  |
|   \\  /    A nd           | Website:  www.openfoam.com                      |
|    \\/     M anipulation  |                                                 |
\*---------------------------------------------------------------------------*/
FoamFile
{
    version     2.0;
    format      ascii;
    arch        "LSB;label=32;scalar=64";
    class       volTensorField;
    location    "0.6/fluidRegion";
    object      Kd.liquid.structure;
}
// * * * * * * * * * * * * * * * * * * * * * * * * * * * * * * * * * * * * * //

dimensions      [1 -3 -1 0 0 0 0];

internalField   nonuniform List<tensor> 
70
(
(1134.57 0 0 0 1134.57 0 0 0 1134.57)
(1133.81 0 0 0 1133.81 0 0 0 1133.81)
(1133.04 0 0 0 1133.04 0 0 0 1133.04)
(1132.27 0 0 0 1132.27 0 0 0 1132.27)
(1131.5 0 0 0 1131.5 0 0 0 1131.5)
(1130.73 0 0 0 1130.73 0 0 0 1130.73)
(1129.95 0 0 0 1129.95 0 0 0 1129.95)
(1129.17 0 0 0 1129.17 0 0 0 1129.17)
(1128.4 0 0 0 1128.4 0 0 0 1128.4)
(1127.62 0 0 0 1127.62 0 0 0 1127.62)
(1126.83 0 0 0 1126.83 0 0 0 1126.83)
(1126.05 0 0 0 1126.05 0 0 0 1126.05)
(1125.26 0 0 0 1125.26 0 0 0 1125.26)
(1124.48 0 0 0 1124.48 0 0 0 1124.48)
(1123.69 0 0 0 1123.69 0 0 0 1123.69)
(1122.9 0 0 0 1122.9 0 0 0 1122.9)
(1122.1 0 0 0 1122.1 0 0 0 1122.1)
(1121.31 0 0 0 1121.31 0 0 0 1121.31)
(1120.51 0 0 0 1120.51 0 0 0 1120.51)
(1119.71 0 0 0 1119.71 0 0 0 1119.71)
(1118.91 0 0 0 1118.91 0 0 0 1118.91)
(1118.11 0 0 0 1118.11 0 0 0 1118.11)
(1117.3 0 0 0 1117.3 0 0 0 1117.3)
(1116.5 0 0 0 1116.5 0 0 0 1116.5)
(1115.69 0 0 0 1115.69 0 0 0 1115.69)
(1114.88 0 0 0 1114.88 0 0 0 1114.88)
(1114.07 0 0 0 1114.07 0 0 0 1114.07)
(1113.26 0 0 0 1113.26 0 0 0 1113.26)
(1112.44 0 0 0 1112.44 0 0 0 1112.44)
(1111.63 0 0 0 1111.63 0 0 0 1111.63)
(1110.81 0 0 0 1110.81 0 0 0 1110.81)
(1109.99 0 0 0 1109.99 0 0 0 1109.99)
(1109.17 0 0 0 1109.17 0 0 0 1109.17)
(1108.34 0 0 0 1108.34 0 0 0 1108.34)
(1117.86 0 0 0 1117.86 0 0 0 1117.86)
(1151.31 0 0 0 1151.31 0 0 0 1151.31)
(1204.62 0 0 0 1204.62 0 0 0 1204.62)
(1272.73 0 0 0 1272.73 0 0 0 1272.73)
(1352.8 0 0 0 1352.8 0 0 0 1352.8)
(1444.76 0 0 0 1444.76 0 0 0 1444.76)
(1546.52 0 0 0 1546.52 0 0 0 1546.52)
(1657.06 0 0 0 1657.06 0 0 0 1657.06)
(1775.37 0 0 0 1775.37 0 0 0 1775.37)
(1900.61 0 0 0 1900.61 0 0 0 1900.61)
(2032.05 0 0 0 2032.05 0 0 0 2032.05)
(2169.03 0 0 0 2169.03 0 0 0 2169.03)
(2310.93 0 0 0 2310.93 0 0 0 2310.93)
(2457.19 0 0 0 2457.19 0 0 0 2457.19)
(2607.27 0 0 0 2607.27 0 0 0 2607.27)
(2760.67 0 0 0 2760.67 0 0 0 2760.67)
(2916.9 0 0 0 2916.9 0 0 0 2916.9)
(3075.5 0 0 0 3075.5 0 0 0 3075.5)
(3236.02 0 0 0 3236.02 0 0 0 3236.02)
(3398.05 0 0 0 3398.05 0 0 0 3398.05)
(3561.77 0 0 0 3561.77 0 0 0 3561.77)
(3728.52 0 0 0 3728.52 0 0 0 3728.52)
(3896.15 0 0 0 3896.15 0 0 0 3896.15)
(4062.96 0 0 0 4062.96 0 0 0 4062.96)
(4228.16 0 0 0 4228.16 0 0 0 4228.16)
(4391.4 0 0 0 4391.4 0 0 0 4391.4)
(4552.47 0 0 0 4552.47 0 0 0 4552.47)
(4710.13 0 0 0 4710.13 0 0 0 4710.13)
(4864.11 0 0 0 4864.11 0 0 0 4864.11)
(5014.63 0 0 0 5014.63 0 0 0 5014.63)
(5161.91 0 0 0 5161.91 0 0 0 5161.91)
(5306.15 0 0 0 5306.15 0 0 0 5306.15)
(5447.52 0 0 0 5447.52 0 0 0 5447.52)
(5586.19 0 0 0 5586.19 0 0 0 5586.19)
(5722.3 0 0 0 5722.3 0 0 0 5722.3)
(5856.38 0 0 0 5856.38 0 0 0 5856.38)
)
;

boundaryField
{
    inlet
    {
        type            zeroGradient;
    }
    outlet
    {
        type            zeroGradient;
    }
    fixedWalls
    {
        type            zeroGradient;
    }
}


// ************************************************************************* //
