/*--------------------------------*- C++ -*----------------------------------*\
| =========                 |                                                 |
| \\      /  F ield         | OpenFOAM: The Open Source CFD Toolbox           |
|  \\    /   O peration     | Version:  2406                                  |
|   \\  /    A nd           | Website:  www.openfoam.com                      |
|    \\/     M anipulation  |                                                 |
\*---------------------------------------------------------------------------*/
FoamFile
{
    version     2.0;
    format      ascii;
    arch        "LSB;label=32;scalar=64";
    class       volTensorField;
    location    "0.6/fluidRegion";
    object      KdTotU;
}
// * * * * * * * * * * * * * * * * * * * * * * * * * * * * * * * * * * * * * //

dimensions      [1 -2 -2 0 0 0 0];

internalField   nonuniform List<tensor> 
70
(
(5073.49 0 0 0 5073.49 0 0 0 5073.49)
(5080.58 0 0 0 5080.58 0 0 0 5080.58)
(5087.74 0 0 0 5087.74 0 0 0 5087.74)
(5094.95 0 0 0 5094.95 0 0 0 5094.95)
(5102.21 0 0 0 5102.21 0 0 0 5102.21)
(5109.54 0 0 0 5109.54 0 0 0 5109.54)
(5116.92 0 0 0 5116.92 0 0 0 5116.92)
(5124.35 0 0 0 5124.35 0 0 0 5124.35)
(5131.83 0 0 0 5131.83 0 0 0 5131.83)
(5139.37 0 0 0 5139.37 0 0 0 5139.37)
(5146.95 0 0 0 5146.95 0 0 0 5146.95)
(5154.59 0 0 0 5154.59 0 0 0 5154.59)
(5162.27 0 0 0 5162.27 0 0 0 5162.27)
(5170 0 0 0 5170 0 0 0 5170)
(5177.78 0 0 0 5177.78 0 0 0 5177.78)
(5185.6 0 0 0 5185.6 0 0 0 5185.6)
(5193.46 0 0 0 5193.46 0 0 0 5193.46)
(5201.36 0 0 0 5201.36 0 0 0 5201.36)
(5209.31 0 0 0 5209.31 0 0 0 5209.31)
(5217.29 0 0 0 5217.29 0 0 0 5217.29)
(5225.31 0 0 0 5225.31 0 0 0 5225.31)
(5233.38 0 0 0 5233.38 0 0 0 5233.38)
(5241.48 0 0 0 5241.48 0 0 0 5241.48)
(5249.61 0 0 0 5249.61 0 0 0 5249.61)
(5257.78 0 0 0 5257.78 0 0 0 5257.78)
(5265.98 0 0 0 5265.98 0 0 0 5265.98)
(5274.22 0 0 0 5274.22 0 0 0 5274.22)
(5282.48 0 0 0 5282.48 0 0 0 5282.48)
(5290.78 0 0 0 5290.78 0 0 0 5290.78)
(5299.1 0 0 0 5299.1 0 0 0 5299.1)
(5307.45 0 0 0 5307.45 0 0 0 5307.45)
(5315.83 0 0 0 5315.83 0 0 0 5315.83)
(5324.24 0 0 0 5324.24 0 0 0 5324.24)
(5332.67 0 0 0 5332.67 0 0 0 5332.67)
(5392.3 0 0 0 5392.3 0 0 0 5392.3)
(5572.95 0 0 0 5572.95 0 0 0 5572.95)
(5858.34 0 0 0 5858.34 0 0 0 5858.34)
(6225.34 0 0 0 6225.34 0 0 0 6225.34)
(6661.29 0 0 0 6661.29 0 0 0 6661.29)
(7167.23 0 0 0 7167.23 0 0 0 7167.23)
(7734.65 0 0 0 7734.65 0 0 0 7734.65)
(8360.27 0 0 0 8360.27 0 0 0 8360.27)
(9040.7 0 0 0 9040.7 0 0 0 9040.7)
(9773.43 0 0 0 9773.43 0 0 0 9773.43)
(10556.3 0 0 0 10556.3 0 0 0 10556.3)
(11387.4 0 0 0 11387.4 0 0 0 11387.4)
(12264.9 0 0 0 12264.9 0 0 0 12264.9)
(13187.1 0 0 0 13187.1 0 0 0 13187.1)
(14152.3 0 0 0 14152.3 0 0 0 14152.3)
(15158.6 0 0 0 15158.6 0 0 0 15158.6)
(16204.3 0 0 0 16204.3 0 0 0 16204.3)
(17287.4 0 0 0 17287.4 0 0 0 17287.4)
(18405.6 0 0 0 18405.6 0 0 0 18405.6)
(19557.1 0 0 0 19557.1 0 0 0 19557.1)
(20743.3 0 0 0 20743.3 0 0 0 20743.3)
(21973.8 0 0 0 21973.8 0 0 0 21973.8)
(23235.4 0 0 0 23235.4 0 0 0 23235.4)
(24515.3 0 0 0 24515.3 0 0 0 24515.3)
(25807 0 0 0 25807 0 0 0 25807)
(27106.7 0 0 0 27106.7 0 0 0 27106.7)
(28411.7 0 0 0 28411.7 0 0 0 28411.7)
(29711.4 0 0 0 29711.4 0 0 0 29711.4)
(31001.9 0 0 0 31001.9 0 0 0 31001.9)
(32283 0 0 0 32283 0 0 0 32283)
(33555.3 0 0 0 33555.3 0 0 0 33555.3)
(34818.8 0 0 0 34818.8 0 0 0 34818.8)
(36074 0 0 0 36074 0 0 0 36074)
(37320.9 0 0 0 37320.9 0 0 0 37320.9)
(38560.6 0 0 0 38560.6 0 0 0 38560.6)
(39784 0 0 0 39784 0 0 0 39784)
)
;

boundaryField
{
    inlet
    {
        type            zeroGradient;
    }
    outlet
    {
        type            zeroGradient;
    }
    fixedWalls
    {
        type            zeroGradient;
    }
}


// ************************************************************************* //
