/*--------------------------------*- C++ -*----------------------------------*\
| =========                 |                                                 |
| \\      /  F ield         | OpenFOAM: The Open Source CFD Toolbox           |
|  \\    /   O peration     | Version:  2406                                  |
|   \\  /    A nd           | Website:  www.openfoam.com                      |
|    \\/     M anipulation  |                                                 |
\*---------------------------------------------------------------------------*/
FoamFile
{
    version     2.0;
    format      ascii;
    arch        "LSB;label=32;scalar=64";
    class       volScalarField;
    location    "30/fluidRegion";
    object      alphaRhoMagU.vapour;
}
// * * * * * * * * * * * * * * * * * * * * * * * * * * * * * * * * * * * * * //

dimensions      [1 -2 -1 0 0 0 0];

internalField   nonuniform List<scalar> 
70
(
0
0
0
0
0
0
0
0
0
0
0
0.014873
0.105716
0.268233
0.492585
0.785593
1.15145
1.59868
2.13623
2.77308
3.51673
4.37195
5.33968
6.41648
7.59463
8.82467
10.076
11.3404
12.6158
13.9015
15.197
16.5019
17.8159
19.1386
20.4699
21.8094
23.1568
24.512
25.8746
27.2444
28.6211
30.0044
31.3942
32.7902
34.1922
35.5999
37.0139
38.4362
39.8672
41.3066
42.754
44.2091
45.6714
47.1407
48.6166
50.0986
51.5866
53.0801
54.5787
56.0838
57.5786
59.0412
60.4919
61.9346
63.3732
64.8094
66.2437
67.6816
69.1023
70.6081
)
;

boundaryField
{
    inlet
    {
        type            calculated;
        value           uniform 0;
    }
    outlet
    {
        type            calculated;
        value           uniform 70.6045;
    }
    fixedWalls
    {
        type            calculated;
        value           nonuniform List<scalar> 
280
(
0
0
0
0
0
0
0
0
0
0
0
0.014873
0.105716
0.268233
0.492585
0.785593
1.15145
1.59868
2.13623
2.77308
3.51673
4.37195
5.33968
6.41648
7.59463
8.82467
10.076
11.3404
12.6158
13.9015
15.197
16.5019
17.8159
19.1386
20.4699
21.8094
23.1568
24.512
25.8746
27.2444
28.6211
30.0044
31.3942
32.7902
34.1922
35.5999
37.0139
38.4362
39.8672
41.3066
42.754
44.2091
45.6714
47.1407
48.6166
50.0986
51.5866
53.0801
54.5787
56.0838
57.5786
59.0412
60.4919
61.9346
63.3732
64.8094
66.2437
67.6816
69.1023
70.6081
0
0
0
0
0
0
0
0
0
0
0
0.014873
0.105716
0.268233
0.492585
0.785593
1.15145
1.59868
2.13623
2.77308
3.51673
4.37195
5.33968
6.41648
7.59463
8.82467
10.076
11.3404
12.6158
13.9015
15.197
16.5019
17.8159
19.1386
20.4699
21.8094
23.1568
24.512
25.8746
27.2444
28.6211
30.0044
31.3942
32.7902
34.1922
35.5999
37.0139
38.4362
39.8672
41.3066
42.754
44.2091
45.6714
47.1407
48.6166
50.0986
51.5866
53.0801
54.5787
56.0838
57.5786
59.0412
60.4919
61.9346
63.3732
64.8094
66.2437
67.6816
69.1023
70.6081
0
0
0
0
0
0
0
0
0
0
0
0.014873
0.105716
0.268233
0.492585
0.785593
1.15145
1.59868
2.13623
2.77308
3.51673
4.37195
5.33968
6.41648
7.59463
8.82467
10.076
11.3404
12.6158
13.9015
15.197
16.5019
17.8159
19.1386
20.4699
21.8094
23.1568
24.512
25.8746
27.2444
28.6211
30.0044
31.3942
32.7902
34.1922
35.5999
37.0139
38.4362
39.8672
41.3066
42.754
44.2091
45.6714
47.1407
48.6166
50.0986
51.5866
53.0801
54.5787
56.0838
57.5786
59.0412
60.4919
61.9346
63.3732
64.8094
66.2437
67.6816
69.1023
70.6081
0
0
0
0
0
0
0
0
0
0
0
0.014873
0.105716
0.268233
0.492585
0.785593
1.15145
1.59868
2.13623
2.77308
3.51673
4.37195
5.33968
6.41648
7.59463
8.82467
10.076
11.3404
12.6158
13.9015
15.197
16.5019
17.8159
19.1386
20.4699
21.8094
23.1568
24.512
25.8746
27.2444
28.6211
30.0044
31.3942
32.7902
34.1922
35.5999
37.0139
38.4362
39.8672
41.3066
42.754
44.2091
45.6714
47.1407
48.6166
50.0986
51.5866
53.0801
54.5787
56.0838
57.5786
59.0412
60.4919
61.9346
63.3732
64.8094
66.2437
67.6816
69.1023
70.6081
)
;
    }
}


// ************************************************************************* //
