/*--------------------------------*- C++ -*----------------------------------*\
| =========                 |                                                 |
| \\      /  F ield         | OpenFOAM: The Open Source CFD Toolbox           |
|  \\    /   O peration     | Version:  2406                                  |
|   \\  /    A nd           | Website:  www.openfoam.com                      |
|    \\/     M anipulation  |                                                 |
\*---------------------------------------------------------------------------*/
FoamFile
{
    version     2.0;
    format      ascii;
    arch        "LSB;label=32;scalar=64";
    class       volScalarField;
    location    "30/fluidRegion";
    object      dgdt.vapour;
}
// * * * * * * * * * * * * * * * * * * * * * * * * * * * * * * * * * * * * * //

dimensions      [0 0 -1 0 0 0 0];

internalField   nonuniform List<scalar> 
70
(
-0
-0
-0
-0
-0
-0
-0
-0
-0
-0
-0
0.0183039
0.112664
0.190418
0.267393
0.347339
0.435131
0.533031
0.642159
0.762152
0.891052
1.02526
1.1598
1.28901
1.41026
1.45538
1.47565
1.49034
1.50284
1.51426
1.52506
1.53543
1.54545
1.55518
1.56462
1.5738
1.58271
1.59135
1.59973
1.60785
1.61571
1.62332
1.63067
1.63778
1.64465
1.65129
1.65895
1.66958
1.67981
1.68964
1.69905
1.70807
1.71668
1.72489
1.73271
1.74014
1.74719
1.75387
1.76019
1.76615
1.77175
1.72903
1.70629
1.69533
1.68975
1.68715
1.68644
1.68681
1.68865
1.69272
)
;

boundaryField
{
    inlet
    {
        type            calculated;
        value           uniform -0;
    }
    outlet
    {
        type            calculated;
        value           uniform 1.69272;
    }
    fixedWalls
    {
        type            calculated;
        value           nonuniform List<scalar> 
280
(
-0
-0
-0
-0
-0
-0
-0
-0
-0
-0
-0
0.0183039
0.112664
0.190418
0.267393
0.347339
0.435131
0.533031
0.642159
0.762152
0.891052
1.02526
1.1598
1.28901
1.41026
1.45538
1.47565
1.49034
1.50284
1.51426
1.52506
1.53543
1.54545
1.55518
1.56462
1.5738
1.58271
1.59135
1.59973
1.60785
1.61571
1.62332
1.63067
1.63778
1.64465
1.65129
1.65895
1.66958
1.67981
1.68964
1.69905
1.70807
1.71668
1.72489
1.73271
1.74014
1.74719
1.75387
1.76019
1.76615
1.77175
1.72903
1.70629
1.69533
1.68975
1.68715
1.68644
1.68681
1.68865
1.69272
-0
-0
-0
-0
-0
-0
-0
-0
-0
-0
-0
0.0183039
0.112664
0.190418
0.267393
0.347339
0.435131
0.533031
0.642159
0.762152
0.891052
1.02526
1.1598
1.28901
1.41026
1.45538
1.47565
1.49034
1.50284
1.51426
1.52506
1.53543
1.54545
1.55518
1.56462
1.5738
1.58271
1.59135
1.59973
1.60785
1.61571
1.62332
1.63067
1.63778
1.64465
1.65129
1.65895
1.66958
1.67981
1.68964
1.69905
1.70807
1.71668
1.72489
1.73271
1.74014
1.74719
1.75387
1.76019
1.76615
1.77175
1.72903
1.70629
1.69533
1.68975
1.68715
1.68644
1.68681
1.68865
1.69272
-0
-0
-0
-0
-0
-0
-0
-0
-0
-0
-0
0.0183039
0.112664
0.190418
0.267393
0.347339
0.435131
0.533031
0.642159
0.762152
0.891052
1.02526
1.1598
1.28901
1.41026
1.45538
1.47565
1.49034
1.50284
1.51426
1.52506
1.53543
1.54545
1.55518
1.56462
1.5738
1.58271
1.59135
1.59973
1.60785
1.61571
1.62332
1.63067
1.63778
1.64465
1.65129
1.65895
1.66958
1.67981
1.68964
1.69905
1.70807
1.71668
1.72489
1.73271
1.74014
1.74719
1.75387
1.76019
1.76615
1.77175
1.72903
1.70629
1.69533
1.68975
1.68715
1.68644
1.68681
1.68865
1.69272
-0
-0
-0
-0
-0
-0
-0
-0
-0
-0
-0
0.0183039
0.112664
0.190418
0.267393
0.347339
0.435131
0.533031
0.642159
0.762152
0.891052
1.02526
1.1598
1.28901
1.41026
1.45538
1.47565
1.49034
1.50284
1.51426
1.52506
1.53543
1.54545
1.55518
1.56462
1.5738
1.58271
1.59135
1.59973
1.60785
1.61571
1.62332
1.63067
1.63778
1.64465
1.65129
1.65895
1.66958
1.67981
1.68964
1.69905
1.70807
1.71668
1.72489
1.73271
1.74014
1.74719
1.75387
1.76019
1.76615
1.77175
1.72903
1.70629
1.69533
1.68975
1.68715
1.68644
1.68681
1.68865
1.69272
)
;
    }
}


// ************************************************************************* //
