/*--------------------------------*- C++ -*----------------------------------*\
| =========                 |                                                 |
| \\      /  F ield         | OpenFOAM: The Open Source CFD Toolbox           |
|  \\    /   O peration     | Version:  2406                                  |
|   \\  /    A nd           | Website:  www.openfoam.com                      |
|    \\/     M anipulation  |                                                 |
\*---------------------------------------------------------------------------*/
FoamFile
{
    version     2.0;
    format      ascii;
    arch        "LSB;label=32;scalar=64";
    class       volTensorField;
    location    "30/fluidRegion";
    object      Kd.liquid.structure;
}
// * * * * * * * * * * * * * * * * * * * * * * * * * * * * * * * * * * * * * //

dimensions      [1 -3 -1 0 0 0 0];

internalField   nonuniform List<tensor> 
70
(
(417.891 0 0 0 417.891 0 0 0 417.891)
(417.379 0 0 0 417.379 0 0 0 417.379)
(416.874 0 0 0 416.874 0 0 0 416.874)
(416.376 0 0 0 416.376 0 0 0 416.376)
(415.884 0 0 0 415.884 0 0 0 415.884)
(415.399 0 0 0 415.399 0 0 0 415.399)
(414.919 0 0 0 414.919 0 0 0 414.919)
(414.446 0 0 0 414.446 0 0 0 414.446)
(413.978 0 0 0 413.978 0 0 0 413.978)
(413.516 0 0 0 413.516 0 0 0 413.516)
(413.059 0 0 0 413.059 0 0 0 413.059)
(416.094 0 0 0 416.094 0 0 0 416.094)
(432.34 0 0 0 432.34 0 0 0 432.34)
(458.42 0 0 0 458.42 0 0 0 458.42)
(491.517 0 0 0 491.517 0 0 0 491.517)
(531.89 0 0 0 531.89 0 0 0 531.89)
(579.248 0 0 0 579.248 0 0 0 579.248)
(633.82 0 0 0 633.82 0 0 0 633.82)
(695.748 0 0 0 695.748 0 0 0 695.748)
(765.059 0 0 0 765.059 0 0 0 765.059)
(841.53 0 0 0 841.53 0 0 0 841.53)
(924.631 0 0 0 924.631 0 0 0 924.631)
(1013.51 0 0 0 1013.51 0 0 0 1013.51)
(1107.03 0 0 0 1107.03 0 0 0 1107.03)
(1203.98 0 0 0 1203.98 0 0 0 1203.98)
(1300.21 0 0 0 1300.21 0 0 0 1300.21)
(1393.34 0 0 0 1393.34 0 0 0 1393.34)
(1483.16 0 0 0 1483.16 0 0 0 1483.16)
(1569.99 0 0 0 1569.99 0 0 0 1569.99)
(1654.16 0 0 0 1654.16 0 0 0 1654.16)
(1735.96 0 0 0 1735.96 0 0 0 1735.96)
(1815.65 0 0 0 1815.65 0 0 0 1815.65)
(1893.41 0 0 0 1893.41 0 0 0 1893.41)
(1969.43 0 0 0 1969.43 0 0 0 1969.43)
(2043.87 0 0 0 2043.87 0 0 0 2043.87)
(2116.86 0 0 0 2116.86 0 0 0 2116.86)
(2188.5 0 0 0 2188.5 0 0 0 2188.5)
(2258.91 0 0 0 2258.91 0 0 0 2258.91)
(2328.17 0 0 0 2328.17 0 0 0 2328.17)
(2396.37 0 0 0 2396.37 0 0 0 2396.37)
(2463.56 0 0 0 2463.56 0 0 0 2463.56)
(2529.83 0 0 0 2529.83 0 0 0 2529.83)
(2595.21 0 0 0 2595.21 0 0 0 2595.21)
(2659.78 0 0 0 2659.78 0 0 0 2659.78)
(2723.57 0 0 0 2723.57 0 0 0 2723.57)
(2786.62 0 0 0 2786.62 0 0 0 2786.62)
(2849.01 0 0 0 2849.01 0 0 0 2849.01)
(2910.85 0 0 0 2910.85 0 0 0 2910.85)
(2972.21 0 0 0 2972.21 0 0 0 2972.21)
(3033.14 0 0 0 3033.14 0 0 0 3033.14)
(3093.62 0 0 0 3093.62 0 0 0 3093.62)
(3153.7 0 0 0 3153.7 0 0 0 3153.7)
(3213.38 0 0 0 3213.38 0 0 0 3213.38)
(3272.67 0 0 0 3272.67 0 0 0 3272.67)
(3331.58 0 0 0 3331.58 0 0 0 3331.58)
(3390.14 0 0 0 3390.14 0 0 0 3390.14)
(3448.34 0 0 0 3448.34 0 0 0 3448.34)
(3506.2 0 0 0 3506.2 0 0 0 3506.2)
(3563.74 0 0 0 3563.74 0 0 0 3563.74)
(3620.87 0 0 0 3620.87 0 0 0 3620.87)
(3678.42 0 0 0 3678.42 0 0 0 3678.42)
(3775.59 0 0 0 3775.59 0 0 0 3775.59)
(3880.16 0 0 0 3880.16 0 0 0 3880.16)
(3984.41 0 0 0 3984.41 0 0 0 3984.41)
(4088.85 0 0 0 4088.85 0 0 0 4088.85)
(4193.75 0 0 0 4193.75 0 0 0 4193.75)
(4299.12 0 0 0 4299.12 0 0 0 4299.12)
(4405.82 0 0 0 4405.82 0 0 0 4405.82)
(4510.18 0 0 0 4510.18 0 0 0 4510.18)
(4630.01 0 0 0 4630.01 0 0 0 4630.01)
)
;

boundaryField
{
    inlet
    {
        type            zeroGradient;
    }
    outlet
    {
        type            zeroGradient;
    }
    fixedWalls
    {
        type            zeroGradient;
    }
}


// ************************************************************************* //
