/*--------------------------------*- C++ -*----------------------------------*\
| =========                 |                                                 |
| \\      /  F ield         | OpenFOAM: The Open Source CFD Toolbox           |
|  \\    /   O peration     | Version:  2406                                  |
|   \\  /    A nd           | Website:  www.openfoam.com                      |
|    \\/     M anipulation  |                                                 |
\*---------------------------------------------------------------------------*/
FoamFile
{
    version     2.0;
    format      ascii;
    arch        "LSB;label=32;scalar=64";
    class       volTensorField;
    location    "30/fluidRegion";
    object      KdTotU;
}
// * * * * * * * * * * * * * * * * * * * * * * * * * * * * * * * * * * * * * //

dimensions      [1 -2 -2 0 0 0 0];

internalField   nonuniform List<tensor> 
70
(
(538.915 0 0 0 538.915 0 0 0 538.915)
(538.682 0 0 0 538.682 0 0 0 538.682)
(538.482 0 0 0 538.482 0 0 0 538.482)
(538.316 0 0 0 538.316 0 0 0 538.316)
(538.183 0 0 0 538.183 0 0 0 538.183)
(538.082 0 0 0 538.082 0 0 0 538.082)
(538.013 0 0 0 538.013 0 0 0 538.013)
(537.975 0 0 0 537.975 0 0 0 537.975)
(537.969 0 0 0 537.969 0 0 0 537.969)
(537.993 0 0 0 537.993 0 0 0 537.993)
(538.048 0 0 0 538.048 0 0 0 538.048)
(542.875 0 0 0 542.875 0 0 0 542.875)
(566.075 0 0 0 566.075 0 0 0 566.075)
(603.949 0 0 0 603.949 0 0 0 603.949)
(652.877 0 0 0 652.877 0 0 0 652.877)
(713.594 0 0 0 713.594 0 0 0 713.594)
(786.31 0 0 0 786.31 0 0 0 786.31)
(872.067 0 0 0 872.067 0 0 0 872.067)
(971.933 0 0 0 971.933 0 0 0 971.933)
(1086.92 0 0 0 1086.92 0 0 0 1086.92)
(1217.75 0 0 0 1217.75 0 0 0 1217.75)
(1364.68 0 0 0 1364.68 0 0 0 1364.68)
(1527.32 0 0 0 1527.32 0 0 0 1527.32)
(1704.67 0 0 0 1704.67 0 0 0 1704.67)
(1895.18 0 0 0 1895.18 0 0 0 1895.18)
(2091.51 0 0 0 2091.51 0 0 0 2091.51)
(2288.33 0 0 0 2288.33 0 0 0 2288.33)
(2484.34 0 0 0 2484.34 0 0 0 2484.34)
(2679.42 0 0 0 2679.42 0 0 0 2679.42)
(2873.57 0 0 0 2873.57 0 0 0 2873.57)
(3066.87 0 0 0 3066.87 0 0 0 3066.87)
(3259.37 0 0 0 3259.37 0 0 0 3259.37)
(3451.13 0 0 0 3451.13 0 0 0 3451.13)
(3642.17 0 0 0 3642.17 0 0 0 3642.17)
(3832.55 0 0 0 3832.55 0 0 0 3832.55)
(4022.27 0 0 0 4022.27 0 0 0 4022.27)
(4211.36 0 0 0 4211.36 0 0 0 4211.36)
(4399.83 0 0 0 4399.83 0 0 0 4399.83)
(4587.68 0 0 0 4587.68 0 0 0 4587.68)
(4774.92 0 0 0 4774.92 0 0 0 4774.92)
(4961.55 0 0 0 4961.55 0 0 0 4961.55)
(5147.56 0 0 0 5147.56 0 0 0 5147.56)
(5332.95 0 0 0 5332.95 0 0 0 5332.95)
(5517.72 0 0 0 5517.72 0 0 0 5517.72)
(5701.86 0 0 0 5701.86 0 0 0 5701.86)
(5885.36 0 0 0 5885.36 0 0 0 5885.36)
(6068.29 0 0 0 6068.29 0 0 0 6068.29)
(6250.9 0 0 0 6250.9 0 0 0 6250.9)
(6433.3 0 0 0 6433.3 0 0 0 6433.3)
(6615.45 0 0 0 6615.45 0 0 0 6615.45)
(6797.33 0 0 0 6797.33 0 0 0 6797.33)
(6978.89 0 0 0 6978.89 0 0 0 6978.89)
(7160.09 0 0 0 7160.09 0 0 0 7160.09)
(7340.9 0 0 0 7340.9 0 0 0 7340.9)
(7521.28 0 0 0 7521.28 0 0 0 7521.28)
(7701.21 0 0 0 7701.21 0 0 0 7701.21)
(7880.64 0 0 0 7880.64 0 0 0 7880.64)
(8059.55 0 0 0 8059.55 0 0 0 8059.55)
(8237.92 0 0 0 8237.92 0 0 0 8237.92)
(8415.72 0 0 0 8415.72 0 0 0 8415.72)
(8592.82 0 0 0 8592.82 0 0 0 8592.82)
(8856.91 0 0 0 8856.91 0 0 0 8856.91)
(9133.22 0 0 0 9133.22 0 0 0 9133.22)
(9406.48 0 0 0 9406.48 0 0 0 9406.48)
(9679.1 0 0 0 9679.1 0 0 0 9679.1)
(9952.28 0 0 0 9952.28 0 0 0 9952.28)
(10226.1 0 0 0 10226.1 0 0 0 10226.1)
(10503.3 0 0 0 10503.3 0 0 0 10503.3)
(10772.6 0 0 0 10772.6 0 0 0 10772.6)
(11087.9 0 0 0 11087.9 0 0 0 11087.9)
)
;

boundaryField
{
    inlet
    {
        type            zeroGradient;
    }
    outlet
    {
        type            zeroGradient;
    }
    fixedWalls
    {
        type            zeroGradient;
    }
}


// ************************************************************************* //
