/*--------------------------------*- C++ -*----------------------------------*\
| =========                 |                                                 |
| \\      /  F ield         | OpenFOAM: The Open Source CFD Toolbox           |
|  \\    /   O peration     | Version:  2406                                  |
|   \\  /    A nd           | Website:  www.openfoam.com                      |
|    \\/     M anipulation  |                                                 |
\*---------------------------------------------------------------------------*/
FoamFile
{
    version     2.0;
    format      ascii;
    arch        "LSB;label=32;scalar=64";
    class       volScalarField;
    location    "30/fluidRegion";
    object      alphaRhoMagU.vapour;
}
// * * * * * * * * * * * * * * * * * * * * * * * * * * * * * * * * * * * * * //

dimensions      [1 -2 -1 0 0 0 0];

internalField   nonuniform List<scalar> 
70
(
0
0
0
0
0
0
0
0
0
0
0
0
0
0
0
0
0.0291977
0.104601
0.212033
0.354604
0.531895
0.746079
0.99972
1.29607
1.63867
2.03118
2.47711
2.97954
3.54087
4.16254
4.84483
5.58671
6.38583
7.23825
8.13438
9.06516
10.0027
10.942
11.8832
12.8271
13.774
14.7239
15.6772
16.6339
17.594
18.5575
19.5245
20.4949
21.4688
22.4461
23.4266
24.4105
25.3977
26.388
27.3815
28.3781
29.3777
30.3803
31.3857
32.3939
33.405
34.4187
35.435
36.4538
37.4752
38.499
39.5251
40.5535
41.584
42.6265
)
;

boundaryField
{
    inlet
    {
        type            calculated;
        value           uniform 0;
    }
    outlet
    {
        type            calculated;
        value           uniform 42.6253;
    }
    fixedWalls
    {
        type            calculated;
        value           nonuniform List<scalar> 
280
(
0
0
0
0
0
0
0
0
0
0
0
0
0
0
0
0
0.0291977
0.104601
0.212033
0.354604
0.531895
0.746079
0.99972
1.29607
1.63867
2.03118
2.47711
2.97954
3.54087
4.16254
4.84483
5.58671
6.38583
7.23825
8.13438
9.06516
10.0027
10.942
11.8832
12.8271
13.774
14.7239
15.6772
16.6339
17.594
18.5575
19.5245
20.4949
21.4688
22.4461
23.4266
24.4105
25.3977
26.388
27.3815
28.3781
29.3777
30.3803
31.3857
32.3939
33.405
34.4187
35.435
36.4538
37.4752
38.499
39.5251
40.5535
41.584
42.6265
0
0
0
0
0
0
0
0
0
0
0
0
0
0
0
0
0.0291977
0.104601
0.212033
0.354604
0.531895
0.746079
0.99972
1.29607
1.63867
2.03118
2.47711
2.97954
3.54087
4.16254
4.84483
5.58671
6.38583
7.23825
8.13438
9.06516
10.0027
10.942
11.8832
12.8271
13.774
14.7239
15.6772
16.6339
17.594
18.5575
19.5245
20.4949
21.4688
22.4461
23.4266
24.4105
25.3977
26.388
27.3815
28.3781
29.3777
30.3803
31.3857
32.3939
33.405
34.4187
35.435
36.4538
37.4752
38.499
39.5251
40.5535
41.584
42.6265
0
0
0
0
0
0
0
0
0
0
0
0
0
0
0
0
0.0291977
0.104601
0.212033
0.354604
0.531895
0.746079
0.99972
1.29607
1.63867
2.03118
2.47711
2.97954
3.54087
4.16254
4.84483
5.58671
6.38583
7.23825
8.13438
9.06516
10.0027
10.942
11.8832
12.8271
13.774
14.7239
15.6772
16.6339
17.594
18.5575
19.5245
20.4949
21.4688
22.4461
23.4266
24.4105
25.3977
26.388
27.3815
28.3781
29.3777
30.3803
31.3857
32.3939
33.405
34.4187
35.435
36.4538
37.4752
38.499
39.5251
40.5535
41.584
42.6265
0
0
0
0
0
0
0
0
0
0
0
0
0
0
0
0
0.0291977
0.104601
0.212033
0.354604
0.531895
0.746079
0.99972
1.29607
1.63867
2.03118
2.47711
2.97954
3.54087
4.16254
4.84483
5.58671
6.38583
7.23825
8.13438
9.06516
10.0027
10.942
11.8832
12.8271
13.774
14.7239
15.6772
16.6339
17.594
18.5575
19.5245
20.4949
21.4688
22.4461
23.4266
24.4105
25.3977
26.388
27.3815
28.3781
29.3777
30.3803
31.3857
32.3939
33.405
34.4187
35.435
36.4538
37.4752
38.499
39.5251
40.5535
41.584
42.6265
)
;
    }
}


// ************************************************************************* //
