/*--------------------------------*- C++ -*----------------------------------*\
| =========                 |                                                 |
| \\      /  F ield         | OpenFOAM: The Open Source CFD Toolbox           |
|  \\    /   O peration     | Version:  2406                                  |
|   \\  /    A nd           | Website:  www.openfoam.com                      |
|    \\/     M anipulation  |                                                 |
\*---------------------------------------------------------------------------*/
FoamFile
{
    version     2.0;
    format      ascii;
    arch        "LSB;label=32;scalar=64";
    class       volScalarField;
    location    "30/fluidRegion";
    object      dgdt.vapour;
}
// * * * * * * * * * * * * * * * * * * * * * * * * * * * * * * * * * * * * * //

dimensions      [0 0 -1 0 0 0 0];

internalField   nonuniform List<scalar> 
70
(
-0
-0
-0
-0
-0
-0
-0
-0
-0
-0
-0
-0
-0
-0
-0
-0
0.0584591
0.118303
0.175488
0.231114
0.288185
0.348421
0.413183
0.48339
0.5596
0.641977
0.730265
0.823747
0.92123
1.02107
1.12126
1.21955
1.31365
1.40144
1.47082
1.52819
1.5289
1.53133
1.53489
1.53915
1.54387
1.54889
1.55411
1.55946
1.5649
1.57038
1.57588
1.58137
1.58683
1.59226
1.59763
1.60295
1.60819
1.61336
1.61845
1.62345
1.62837
1.6332
1.63794
1.64259
1.64714
1.6516
1.65596
1.66023
1.66441
1.6685
1.67249
1.6764
1.68135
1.69078
)
;

boundaryField
{
    inlet
    {
        type            calculated;
        value           uniform -0;
    }
    outlet
    {
        type            calculated;
        value           uniform 1.69078;
    }
    fixedWalls
    {
        type            calculated;
        value           nonuniform List<scalar> 
280
(
-0
-0
-0
-0
-0
-0
-0
-0
-0
-0
-0
-0
-0
-0
-0
-0
0.0584591
0.118303
0.175488
0.231114
0.288185
0.348421
0.413183
0.48339
0.5596
0.641977
0.730265
0.823747
0.92123
1.02107
1.12126
1.21955
1.31365
1.40144
1.47082
1.52819
1.5289
1.53133
1.53489
1.53915
1.54387
1.54889
1.55411
1.55946
1.5649
1.57038
1.57588
1.58137
1.58683
1.59226
1.59763
1.60295
1.60819
1.61336
1.61845
1.62345
1.62837
1.6332
1.63794
1.64259
1.64714
1.6516
1.65596
1.66023
1.66441
1.6685
1.67249
1.6764
1.68135
1.69078
-0
-0
-0
-0
-0
-0
-0
-0
-0
-0
-0
-0
-0
-0
-0
-0
0.0584591
0.118303
0.175488
0.231114
0.288185
0.348421
0.413183
0.48339
0.5596
0.641977
0.730265
0.823747
0.92123
1.02107
1.12126
1.21955
1.31365
1.40144
1.47082
1.52819
1.5289
1.53133
1.53489
1.53915
1.54387
1.54889
1.55411
1.55946
1.5649
1.57038
1.57588
1.58137
1.58683
1.59226
1.59763
1.60295
1.60819
1.61336
1.61845
1.62345
1.62837
1.6332
1.63794
1.64259
1.64714
1.6516
1.65596
1.66023
1.66441
1.6685
1.67249
1.6764
1.68135
1.69078
-0
-0
-0
-0
-0
-0
-0
-0
-0
-0
-0
-0
-0
-0
-0
-0
0.0584591
0.118303
0.175488
0.231114
0.288185
0.348421
0.413183
0.48339
0.5596
0.641977
0.730265
0.823747
0.92123
1.02107
1.12126
1.21955
1.31365
1.40144
1.47082
1.52819
1.5289
1.53133
1.53489
1.53915
1.54387
1.54889
1.55411
1.55946
1.5649
1.57038
1.57588
1.58137
1.58683
1.59226
1.59763
1.60295
1.60819
1.61336
1.61845
1.62345
1.62837
1.6332
1.63794
1.64259
1.64714
1.6516
1.65596
1.66023
1.66441
1.6685
1.67249
1.6764
1.68135
1.69078
-0
-0
-0
-0
-0
-0
-0
-0
-0
-0
-0
-0
-0
-0
-0
-0
0.0584591
0.118303
0.175488
0.231114
0.288185
0.348421
0.413183
0.48339
0.5596
0.641977
0.730265
0.823747
0.92123
1.02107
1.12126
1.21955
1.31365
1.40144
1.47082
1.52819
1.5289
1.53133
1.53489
1.53915
1.54387
1.54889
1.55411
1.55946
1.5649
1.57038
1.57588
1.58137
1.58683
1.59226
1.59763
1.60295
1.60819
1.61336
1.61845
1.62345
1.62837
1.6332
1.63794
1.64259
1.64714
1.6516
1.65596
1.66023
1.66441
1.6685
1.67249
1.6764
1.68135
1.69078
)
;
    }
}


// ************************************************************************* //
