/*--------------------------------*- C++ -*----------------------------------*\
| =========                 |                                                 |
| \\      /  F ield         | OpenFOAM: The Open Source CFD Toolbox           |
|  \\    /   O peration     | Version:  2406                                  |
|   \\  /    A nd           | Website:  www.openfoam.com                      |
|    \\/     M anipulation  |                                                 |
\*---------------------------------------------------------------------------*/
FoamFile
{
    version     2.0;
    format      ascii;
    arch        "LSB;label=32;scalar=64";
    class       volTensorField;
    location    "30/fluidRegion";
    object      Kd.liquid.structure;
}
// * * * * * * * * * * * * * * * * * * * * * * * * * * * * * * * * * * * * * //

dimensions      [1 -3 -1 0 0 0 0];

internalField   nonuniform List<tensor> 
70
(
(418.057 0 0 0 418.057 0 0 0 418.057)
(417.687 0 0 0 417.687 0 0 0 417.687)
(417.321 0 0 0 417.321 0 0 0 417.321)
(416.958 0 0 0 416.958 0 0 0 416.958)
(416.599 0 0 0 416.599 0 0 0 416.599)
(416.243 0 0 0 416.243 0 0 0 416.243)
(415.89 0 0 0 415.89 0 0 0 415.89)
(415.541 0 0 0 415.541 0 0 0 415.541)
(415.195 0 0 0 415.195 0 0 0 415.195)
(414.852 0 0 0 414.852 0 0 0 414.852)
(414.512 0 0 0 414.512 0 0 0 414.512)
(414.175 0 0 0 414.175 0 0 0 414.175)
(413.841 0 0 0 413.841 0 0 0 413.841)
(413.51 0 0 0 413.51 0 0 0 413.51)
(413.182 0 0 0 413.182 0 0 0 413.182)
(412.856 0 0 0 412.856 0 0 0 412.856)
(419.041 0 0 0 419.041 0 0 0 419.041)
(433.11 0 0 0 433.11 0 0 0 433.11)
(451.366 0 0 0 451.366 0 0 0 451.366)
(474.088 0 0 0 474.088 0 0 0 474.088)
(500.865 0 0 0 500.865 0 0 0 500.865)
(531.714 0 0 0 531.714 0 0 0 531.714)
(566.68 0 0 0 566.68 0 0 0 566.68)
(605.861 0 0 0 605.861 0 0 0 605.861)
(649.355 0 0 0 649.355 0 0 0 649.355)
(697.229 0 0 0 697.229 0 0 0 697.229)
(749.487 0 0 0 749.487 0 0 0 749.487)
(806.054 0 0 0 806.054 0 0 0 806.054)
(866.754 0 0 0 866.754 0 0 0 866.754)
(931.306 0 0 0 931.306 0 0 0 931.306)
(999.321 0 0 0 999.321 0 0 0 999.321)
(1070.32 0 0 0 1070.32 0 0 0 1070.32)
(1143.73 0 0 0 1143.73 0 0 0 1143.73)
(1218.96 0 0 0 1218.96 0 0 0 1218.96)
(1294.99 0 0 0 1294.99 0 0 0 1294.99)
(1371 0 0 0 1371 0 0 0 1371)
(1444.87 0 0 0 1444.87 0 0 0 1444.87)
(1516.25 0 0 0 1516.25 0 0 0 1516.25)
(1585.38 0 0 0 1585.38 0 0 0 1585.38)
(1652.53 0 0 0 1652.53 0 0 0 1652.53)
(1717.87 0 0 0 1717.87 0 0 0 1717.87)
(1781.56 0 0 0 1781.56 0 0 0 1781.56)
(1843.75 0 0 0 1843.75 0 0 0 1843.75)
(1904.55 0 0 0 1904.55 0 0 0 1904.55)
(1964.06 0 0 0 1964.06 0 0 0 1964.06)
(2022.39 0 0 0 2022.39 0 0 0 2022.39)
(2079.61 0 0 0 2079.61 0 0 0 2079.61)
(2135.79 0 0 0 2135.79 0 0 0 2135.79)
(2191.02 0 0 0 2191.02 0 0 0 2191.02)
(2245.33 0 0 0 2245.33 0 0 0 2245.33)
(2298.8 0 0 0 2298.8 0 0 0 2298.8)
(2351.47 0 0 0 2351.47 0 0 0 2351.47)
(2403.38 0 0 0 2403.38 0 0 0 2403.38)
(2454.58 0 0 0 2454.58 0 0 0 2454.58)
(2505.11 0 0 0 2505.11 0 0 0 2505.11)
(2555.01 0 0 0 2555.01 0 0 0 2555.01)
(2604.3 0 0 0 2604.3 0 0 0 2604.3)
(2653.02 0 0 0 2653.02 0 0 0 2653.02)
(2701.19 0 0 0 2701.19 0 0 0 2701.19)
(2748.85 0 0 0 2748.85 0 0 0 2748.85)
(2796.01 0 0 0 2796.01 0 0 0 2796.01)
(2842.7 0 0 0 2842.7 0 0 0 2842.7)
(2888.93 0 0 0 2888.93 0 0 0 2888.93)
(2934.74 0 0 0 2934.74 0 0 0 2934.74)
(2980.14 0 0 0 2980.14 0 0 0 2980.14)
(3025.14 0 0 0 3025.14 0 0 0 3025.14)
(3069.76 0 0 0 3069.76 0 0 0 3069.76)
(3114.02 0 0 0 3114.02 0 0 0 3114.02)
(3157.97 0 0 0 3157.97 0 0 0 3157.97)
(3201.44 0 0 0 3201.44 0 0 0 3201.44)
)
;

boundaryField
{
    inlet
    {
        type            zeroGradient;
    }
    outlet
    {
        type            zeroGradient;
    }
    fixedWalls
    {
        type            zeroGradient;
    }
}


// ************************************************************************* //
