/*--------------------------------*- C++ -*----------------------------------*\
| =========                 |                                                 |
| \\      /  F ield         | OpenFOAM: The Open Source CFD Toolbox           |
|  \\    /   O peration     | Version:  2406                                  |
|   \\  /    A nd           | Website:  www.openfoam.com                      |
|    \\/     M anipulation  |                                                 |
\*---------------------------------------------------------------------------*/
FoamFile
{
    version     2.0;
    format      ascii;
    arch        "LSB;label=32;scalar=64";
    class       volTensorField;
    location    "30/fluidRegion";
    object      KdTotU;
}
// * * * * * * * * * * * * * * * * * * * * * * * * * * * * * * * * * * * * * //

dimensions      [1 -2 -2 0 0 0 0];

internalField   nonuniform List<tensor> 
70
(
(539.053 0 0 0 539.053 0 0 0 539.053)
(538.879 0 0 0 538.879 0 0 0 538.879)
(538.722 0 0 0 538.722 0 0 0 538.722)
(538.584 0 0 0 538.584 0 0 0 538.584)
(538.462 0 0 0 538.462 0 0 0 538.462)
(538.358 0 0 0 538.358 0 0 0 538.358)
(538.27 0 0 0 538.27 0 0 0 538.27)
(538.2 0 0 0 538.2 0 0 0 538.2)
(538.146 0 0 0 538.146 0 0 0 538.146)
(538.109 0 0 0 538.109 0 0 0 538.109)
(538.088 0 0 0 538.088 0 0 0 538.088)
(538.083 0 0 0 538.083 0 0 0 538.083)
(538.094 0 0 0 538.094 0 0 0 538.094)
(538.121 0 0 0 538.121 0 0 0 538.121)
(538.164 0 0 0 538.164 0 0 0 538.164)
(538.222 0 0 0 538.222 0 0 0 538.222)
(547.09 0 0 0 547.09 0 0 0 547.09)
(566.853 0 0 0 566.853 0 0 0 566.853)
(592.675 0 0 0 592.675 0 0 0 592.675)
(625.014 0 0 0 625.014 0 0 0 625.014)
(663.468 0 0 0 663.468 0 0 0 663.468)
(708.231 0 0 0 708.231 0 0 0 708.231)
(759.574 0 0 0 759.574 0 0 0 759.574)
(817.887 0 0 0 817.887 0 0 0 817.887)
(883.6 0 0 0 883.6 0 0 0 883.6)
(957.141 0 0 0 957.141 0 0 0 957.141)
(1038.89 0 0 0 1038.89 0 0 0 1038.89)
(1129.16 0 0 0 1129.16 0 0 0 1129.16)
(1228.1 0 0 0 1228.1 0 0 0 1228.1)
(1335.74 0 0 0 1335.74 0 0 0 1335.74)
(1451.9 0 0 0 1451.9 0 0 0 1451.9)
(1576.21 0 0 0 1576.21 0 0 0 1576.21)
(1708.12 0 0 0 1708.12 0 0 0 1708.12)
(1846.86 0 0 0 1846.86 0 0 0 1846.86)
(1990.87 0 0 0 1990.87 0 0 0 1990.87)
(2138.67 0 0 0 2138.67 0 0 0 2138.67)
(2286.26 0 0 0 2286.26 0 0 0 2286.26)
(2432.42 0 0 0 2432.42 0 0 0 2432.42)
(2577.37 0 0 0 2577.37 0 0 0 2577.37)
(2721.29 0 0 0 2721.29 0 0 0 2721.29)
(2864.32 0 0 0 2864.32 0 0 0 2864.32)
(3006.55 0 0 0 3006.55 0 0 0 3006.55)
(3148.07 0 0 0 3148.07 0 0 0 3148.07)
(3288.94 0 0 0 3288.94 0 0 0 3288.94)
(3429.21 0 0 0 3429.21 0 0 0 3429.21)
(3568.92 0 0 0 3568.92 0 0 0 3568.92)
(3708.12 0 0 0 3708.12 0 0 0 3708.12)
(3846.82 0 0 0 3846.82 0 0 0 3846.82)
(3985.05 0 0 0 3985.05 0 0 0 3985.05)
(4122.84 0 0 0 4122.84 0 0 0 4122.84)
(4260.19 0 0 0 4260.19 0 0 0 4260.19)
(4397.13 0 0 0 4397.13 0 0 0 4397.13)
(4533.67 0 0 0 4533.67 0 0 0 4533.67)
(4669.8 0 0 0 4669.8 0 0 0 4669.8)
(4805.55 0 0 0 4805.55 0 0 0 4805.55)
(4940.92 0 0 0 4940.92 0 0 0 4940.92)
(5075.92 0 0 0 5075.92 0 0 0 5075.92)
(5210.54 0 0 0 5210.54 0 0 0 5210.54)
(5344.8 0 0 0 5344.8 0 0 0 5344.8)
(5478.69 0 0 0 5478.69 0 0 0 5478.69)
(5612.22 0 0 0 5612.22 0 0 0 5612.22)
(5745.39 0 0 0 5745.39 0 0 0 5745.39)
(5878.2 0 0 0 5878.2 0 0 0 5878.2)
(6010.65 0 0 0 6010.65 0 0 0 6010.65)
(6142.75 0 0 0 6142.75 0 0 0 6142.75)
(6274.49 0 0 0 6274.49 0 0 0 6274.49)
(6405.89 0 0 0 6405.89 0 0 0 6405.89)
(6536.93 0 0 0 6536.93 0 0 0 6536.93)
(6667.64 0 0 0 6667.64 0 0 0 6667.64)
(6798.54 0 0 0 6798.54 0 0 0 6798.54)
)
;

boundaryField
{
    inlet
    {
        type            zeroGradient;
    }
    outlet
    {
        type            zeroGradient;
    }
    fixedWalls
    {
        type            zeroGradient;
    }
}


// ************************************************************************* //
