/*--------------------------------*- C++ -*----------------------------------*\
| =========                 |                                                 |
| \\      /  F ield         | OpenFOAM: The Open Source CFD Toolbox           |
|  \\    /   O peration     | Version:  2406                                  |
|   \\  /    A nd           | Website:  www.openfoam.com                      |
|    \\/     M anipulation  |                                                 |
\*---------------------------------------------------------------------------*/
FoamFile
{
    version     2.0;
    format      ascii;
    arch        "LSB;label=32;scalar=64";
    class       volScalarField;
    location    "30/fluidRegion";
    object      p;
}
// * * * * * * * * * * * * * * * * * * * * * * * * * * * * * * * * * * * * * //

dimensions      [1 -1 -2 0 0 0 0];

internalField   nonuniform List<scalar> 
70
(
7.21219e+06
7.212e+06
7.21181e+06
7.21162e+06
7.21143e+06
7.21124e+06
7.21105e+06
7.21086e+06
7.21067e+06
7.21048e+06
7.21029e+06
7.2101e+06
7.20991e+06
7.20972e+06
7.20954e+06
7.20935e+06
7.20916e+06
7.20897e+06
7.20877e+06
7.20858e+06
7.20838e+06
7.20819e+06
7.20799e+06
7.20778e+06
7.20758e+06
7.20737e+06
7.20716e+06
7.20694e+06
7.20672e+06
7.2065e+06
7.20627e+06
7.20604e+06
7.2058e+06
7.20556e+06
7.20531e+06
7.20506e+06
7.2048e+06
7.20453e+06
7.20427e+06
7.20399e+06
7.20372e+06
7.20344e+06
7.20315e+06
7.20286e+06
7.20257e+06
7.20227e+06
7.20196e+06
7.20165e+06
7.20134e+06
7.20102e+06
7.2007e+06
7.20037e+06
7.20004e+06
7.1997e+06
7.19936e+06
7.19901e+06
7.19865e+06
7.1983e+06
7.19793e+06
7.19756e+06
7.19719e+06
7.19681e+06
7.19643e+06
7.19604e+06
7.19565e+06
7.19525e+06
7.19484e+06
7.19443e+06
7.19402e+06
7.1936e+06
)
;

boundaryField
{
    inlet
    {
        type            calculated;
        value           uniform 7.21229e+06;
    }
    outlet
    {
        type            calculated;
        value           uniform 7.19338e+06;
    }
    fixedWalls
    {
        type            calculated;
        value           nonuniform List<scalar> 
280
(
7.21219e+06
7.212e+06
7.21181e+06
7.21162e+06
7.21143e+06
7.21124e+06
7.21105e+06
7.21086e+06
7.21067e+06
7.21048e+06
7.21029e+06
7.2101e+06
7.20991e+06
7.20972e+06
7.20954e+06
7.20935e+06
7.20916e+06
7.20897e+06
7.20877e+06
7.20858e+06
7.20838e+06
7.20819e+06
7.20799e+06
7.20778e+06
7.20758e+06
7.20737e+06
7.20716e+06
7.20694e+06
7.20672e+06
7.2065e+06
7.20627e+06
7.20604e+06
7.2058e+06
7.20556e+06
7.20531e+06
7.20506e+06
7.2048e+06
7.20453e+06
7.20427e+06
7.20399e+06
7.20372e+06
7.20344e+06
7.20315e+06
7.20286e+06
7.20257e+06
7.20227e+06
7.20196e+06
7.20165e+06
7.20134e+06
7.20102e+06
7.2007e+06
7.20037e+06
7.20004e+06
7.1997e+06
7.19936e+06
7.19901e+06
7.19865e+06
7.1983e+06
7.19793e+06
7.19756e+06
7.19719e+06
7.19681e+06
7.19643e+06
7.19604e+06
7.19565e+06
7.19525e+06
7.19484e+06
7.19443e+06
7.19402e+06
7.1936e+06
7.21219e+06
7.212e+06
7.21181e+06
7.21162e+06
7.21143e+06
7.21124e+06
7.21105e+06
7.21086e+06
7.21067e+06
7.21048e+06
7.21029e+06
7.2101e+06
7.20991e+06
7.20972e+06
7.20954e+06
7.20935e+06
7.20916e+06
7.20897e+06
7.20877e+06
7.20858e+06
7.20838e+06
7.20819e+06
7.20799e+06
7.20778e+06
7.20758e+06
7.20737e+06
7.20716e+06
7.20694e+06
7.20672e+06
7.2065e+06
7.20627e+06
7.20604e+06
7.2058e+06
7.20556e+06
7.20531e+06
7.20506e+06
7.2048e+06
7.20453e+06
7.20427e+06
7.20399e+06
7.20372e+06
7.20344e+06
7.20315e+06
7.20286e+06
7.20257e+06
7.20227e+06
7.20196e+06
7.20165e+06
7.20134e+06
7.20102e+06
7.2007e+06
7.20037e+06
7.20004e+06
7.1997e+06
7.19936e+06
7.19901e+06
7.19865e+06
7.1983e+06
7.19793e+06
7.19756e+06
7.19719e+06
7.19681e+06
7.19643e+06
7.19604e+06
7.19565e+06
7.19525e+06
7.19484e+06
7.19443e+06
7.19402e+06
7.1936e+06
7.21219e+06
7.212e+06
7.21181e+06
7.21162e+06
7.21143e+06
7.21124e+06
7.21105e+06
7.21086e+06
7.21067e+06
7.21048e+06
7.21029e+06
7.2101e+06
7.20991e+06
7.20972e+06
7.20954e+06
7.20935e+06
7.20916e+06
7.20897e+06
7.20877e+06
7.20858e+06
7.20838e+06
7.20819e+06
7.20799e+06
7.20778e+06
7.20758e+06
7.20737e+06
7.20716e+06
7.20694e+06
7.20672e+06
7.2065e+06
7.20627e+06
7.20604e+06
7.2058e+06
7.20556e+06
7.20531e+06
7.20506e+06
7.2048e+06
7.20453e+06
7.20427e+06
7.20399e+06
7.20372e+06
7.20344e+06
7.20315e+06
7.20286e+06
7.20257e+06
7.20227e+06
7.20196e+06
7.20165e+06
7.20134e+06
7.20102e+06
7.2007e+06
7.20037e+06
7.20004e+06
7.1997e+06
7.19936e+06
7.19901e+06
7.19865e+06
7.1983e+06
7.19793e+06
7.19756e+06
7.19719e+06
7.19681e+06
7.19643e+06
7.19604e+06
7.19565e+06
7.19525e+06
7.19484e+06
7.19443e+06
7.19402e+06
7.1936e+06
7.21219e+06
7.212e+06
7.21181e+06
7.21162e+06
7.21143e+06
7.21124e+06
7.21105e+06
7.21086e+06
7.21067e+06
7.21048e+06
7.21029e+06
7.2101e+06
7.20991e+06
7.20972e+06
7.20954e+06
7.20935e+06
7.20916e+06
7.20897e+06
7.20877e+06
7.20858e+06
7.20838e+06
7.20819e+06
7.20799e+06
7.20778e+06
7.20758e+06
7.20737e+06
7.20716e+06
7.20694e+06
7.20672e+06
7.2065e+06
7.20627e+06
7.20604e+06
7.2058e+06
7.20556e+06
7.20531e+06
7.20506e+06
7.2048e+06
7.20453e+06
7.20427e+06
7.20399e+06
7.20372e+06
7.20344e+06
7.20315e+06
7.20286e+06
7.20257e+06
7.20227e+06
7.20196e+06
7.20165e+06
7.20134e+06
7.20102e+06
7.2007e+06
7.20037e+06
7.20004e+06
7.1997e+06
7.19936e+06
7.19901e+06
7.19865e+06
7.1983e+06
7.19793e+06
7.19756e+06
7.19719e+06
7.19681e+06
7.19643e+06
7.19604e+06
7.19565e+06
7.19525e+06
7.19484e+06
7.19443e+06
7.19402e+06
7.1936e+06
)
;
    }
}


// ************************************************************************* //
