/*--------------------------------*- C++ -*----------------------------------*\
| =========                 |                                                 |
| \\      /  F ield         | OpenFOAM: The Open Source CFD Toolbox           |
|  \\    /   O peration     | Version:  2406                                  |
|   \\  /    A nd           | Website:  www.openfoam.com                      |
|    \\/     M anipulation  |                                                 |
\*---------------------------------------------------------------------------*/
FoamFile
{
    version     2.0;
    format      ascii;
    arch        "LSB;label=32;scalar=64";
    class       volScalarField;
    location    "16/fluidRegion";
    object      alphaRhoMagU.vapour;
}
// * * * * * * * * * * * * * * * * * * * * * * * * * * * * * * * * * * * * * //

dimensions      [1 -2 -1 0 0 0 0];

internalField   nonuniform List<scalar> 
75
(
0
0
0
0
0
0
0
0
0
0
0
0
0.128528
0.397599
0.783608
1.28545
1.90768
2.66204
3.56212
4.61848
5.82789
7.16992
8.79729
10.5445
12.2891
13.9968
15.6584
17.2697
18.8292
20.3327
21.7691
23.1373
24.4409
25.6839
26.8689
27.9984
29.0752
30.1016
31.08
32.0126
32.9017
33.7493
34.5577
35.3285
36.0632
36.7632
37.4305
38.0668
38.6734
39.2514
39.8021
40.3263
40.8251
41.2994
41.75
42.1778
42.5835
42.9678
43.3314
43.6749
43.9989
44.3041
44.5908
44.8596
45.1109
45.3453
45.5631
45.7648
45.9507
46.1213
46.2768
46.4178
46.5445
46.657
46.7594
)
;

boundaryField
{
    inlet
    {
        type            calculated;
        value           uniform 0;
    }
    outlet
    {
        type            calculated;
        value           uniform 46.7583;
    }
    fixedWalls
    {
        type            calculated;
        value           nonuniform List<scalar> 
300
(
0
0
0
0
0
0
0
0
0
0
0
0
0.128528
0.397599
0.783608
1.28545
1.90768
2.66204
3.56212
4.61848
5.82789
7.16992
8.79729
10.5445
12.2891
13.9968
15.6584
17.2697
18.8292
20.3327
21.7691
23.1373
24.4409
25.6839
26.8689
27.9984
29.0752
30.1016
31.08
32.0126
32.9017
33.7493
34.5577
35.3285
36.0632
36.7632
37.4305
38.0668
38.6734
39.2514
39.8021
40.3263
40.8251
41.2994
41.75
42.1778
42.5835
42.9678
43.3314
43.6749
43.9989
44.3041
44.5908
44.8596
45.1109
45.3453
45.5631
45.7648
45.9507
46.1213
46.2768
46.4178
46.5445
46.657
46.7594
0
0
0
0
0
0
0
0
0
0
0
0
0.128528
0.397599
0.783608
1.28545
1.90768
2.66204
3.56212
4.61848
5.82789
7.16992
8.79729
10.5445
12.2891
13.9968
15.6584
17.2697
18.8292
20.3327
21.7691
23.1373
24.4409
25.6839
26.8689
27.9984
29.0752
30.1016
31.08
32.0126
32.9017
33.7493
34.5577
35.3285
36.0632
36.7632
37.4305
38.0668
38.6734
39.2514
39.8021
40.3263
40.8251
41.2994
41.75
42.1778
42.5835
42.9678
43.3314
43.6749
43.9989
44.3041
44.5908
44.8596
45.1109
45.3453
45.5631
45.7648
45.9507
46.1213
46.2768
46.4178
46.5445
46.657
46.7594
0
0
0
0
0
0
0
0
0
0
0
0
0.128528
0.397599
0.783608
1.28545
1.90768
2.66204
3.56212
4.61848
5.82789
7.16992
8.79729
10.5445
12.2891
13.9968
15.6584
17.2697
18.8292
20.3327
21.7691
23.1373
24.4409
25.6839
26.8689
27.9984
29.0752
30.1016
31.08
32.0126
32.9017
33.7493
34.5577
35.3285
36.0632
36.7632
37.4305
38.0668
38.6734
39.2514
39.8021
40.3263
40.8251
41.2994
41.75
42.1778
42.5835
42.9678
43.3314
43.6749
43.9989
44.3041
44.5908
44.8596
45.1109
45.3453
45.5631
45.7648
45.9507
46.1213
46.2768
46.4178
46.5445
46.657
46.7594
0
0
0
0
0
0
0
0
0
0
0
0
0.128528
0.397599
0.783608
1.28545
1.90768
2.66204
3.56212
4.61848
5.82789
7.16992
8.79729
10.5445
12.2891
13.9968
15.6584
17.2697
18.8292
20.3327
21.7691
23.1373
24.4409
25.6839
26.8689
27.9984
29.0752
30.1016
31.08
32.0126
32.9017
33.7493
34.5577
35.3285
36.0632
36.7632
37.4305
38.0668
38.6734
39.2514
39.8021
40.3263
40.8251
41.2994
41.75
42.1778
42.5835
42.9678
43.3314
43.6749
43.9989
44.3041
44.5908
44.8596
45.1109
45.3453
45.5631
45.7648
45.9507
46.1213
46.2768
46.4178
46.5445
46.657
46.7594
)
;
    }
}


// ************************************************************************* //
