/*--------------------------------*- C++ -*----------------------------------*\
| =========                 |                                                 |
| \\      /  F ield         | OpenFOAM: The Open Source CFD Toolbox           |
|  \\    /   O peration     | Version:  2406                                  |
|   \\  /    A nd           | Website:  www.openfoam.com                      |
|    \\/     M anipulation  |                                                 |
\*---------------------------------------------------------------------------*/
FoamFile
{
    version     2.0;
    format      ascii;
    arch        "LSB;label=32;scalar=64";
    class       volScalarField;
    location    "16/fluidRegion";
    object      dgdt.vapour;
}
// * * * * * * * * * * * * * * * * * * * * * * * * * * * * * * * * * * * * * //

dimensions      [0 0 -1 0 0 0 0];

internalField   nonuniform List<scalar> 
75
(
-4.86269e-214
-4.93516e-214
-4.57114e-214
-6.30722e-214
-5.54206e-214
-5.78388e-214
-5.79009e-214
-5.39535e-214
-5.2515e-214
-5.21224e-214
-5.85957e-214
-5.99645e-214
0.228701
0.447212
0.641762
0.83176
1.03355
1.25601
1.50205
1.76501
2.01957
2.21274
2.79224
2.8667
2.83764
2.77252
2.69378
2.60911
2.52215
2.4276
2.30944
2.19823
2.09336
1.99499
1.90053
1.81064
1.72514
1.6438
1.5664
1.49273
1.42264
1.35604
1.29337
1.23295
1.17492
1.11919
1.06719
1.01764
0.970097
0.924436
0.880536
0.838287
0.797588
0.758347
0.720475
0.683891
0.648517
0.614281
0.581114
0.548954
0.517738
0.487413
0.457926
0.429228
0.401277
0.374035
0.34747
0.321557
0.296275
0.271612
0.247559
0.224108
0.201238
0.178911
0.158799
)
;

boundaryField
{
    inlet
    {
        type            calculated;
        value           uniform -4.86269e-214;
    }
    outlet
    {
        type            calculated;
        value           uniform 0.158799;
    }
    fixedWalls
    {
        type            calculated;
        value           nonuniform List<scalar> 
300
(
-4.86269e-214
-4.93516e-214
-4.57114e-214
-6.30722e-214
-5.54206e-214
-5.78388e-214
-5.79009e-214
-5.39535e-214
-5.2515e-214
-5.21224e-214
-5.85957e-214
-5.99645e-214
0.228701
0.447212
0.641762
0.83176
1.03355
1.25601
1.50205
1.76501
2.01957
2.21274
2.79224
2.8667
2.83764
2.77252
2.69378
2.60911
2.52215
2.4276
2.30944
2.19823
2.09336
1.99499
1.90053
1.81064
1.72514
1.6438
1.5664
1.49273
1.42264
1.35604
1.29337
1.23295
1.17492
1.11919
1.06719
1.01764
0.970097
0.924436
0.880536
0.838287
0.797588
0.758347
0.720475
0.683891
0.648517
0.614281
0.581114
0.548954
0.517738
0.487413
0.457926
0.429228
0.401277
0.374035
0.34747
0.321557
0.296275
0.271612
0.247559
0.224108
0.201238
0.178911
0.158799
-4.86269e-214
-4.93516e-214
-4.57114e-214
-6.30722e-214
-5.54206e-214
-5.78388e-214
-5.79009e-214
-5.39535e-214
-5.2515e-214
-5.21224e-214
-5.85957e-214
-5.99645e-214
0.228701
0.447212
0.641762
0.83176
1.03355
1.25601
1.50205
1.76501
2.01957
2.21274
2.79224
2.8667
2.83764
2.77252
2.69378
2.60911
2.52215
2.4276
2.30944
2.19823
2.09336
1.99499
1.90053
1.81064
1.72514
1.6438
1.5664
1.49273
1.42264
1.35604
1.29337
1.23295
1.17492
1.11919
1.06719
1.01764
0.970097
0.924436
0.880536
0.838287
0.797588
0.758347
0.720475
0.683891
0.648517
0.614281
0.581114
0.548954
0.517738
0.487413
0.457926
0.429228
0.401277
0.374035
0.34747
0.321557
0.296275
0.271612
0.247559
0.224108
0.201238
0.178911
0.158799
-4.86269e-214
-4.93516e-214
-4.57114e-214
-6.30722e-214
-5.54206e-214
-5.78388e-214
-5.79009e-214
-5.39535e-214
-5.2515e-214
-5.21224e-214
-5.85957e-214
-5.99645e-214
0.228701
0.447212
0.641762
0.83176
1.03355
1.25601
1.50205
1.76501
2.01957
2.21274
2.79224
2.8667
2.83764
2.77252
2.69378
2.60911
2.52215
2.4276
2.30944
2.19823
2.09336
1.99499
1.90053
1.81064
1.72514
1.6438
1.5664
1.49273
1.42264
1.35604
1.29337
1.23295
1.17492
1.11919
1.06719
1.01764
0.970097
0.924436
0.880536
0.838287
0.797588
0.758347
0.720475
0.683891
0.648517
0.614281
0.581114
0.548954
0.517738
0.487413
0.457926
0.429228
0.401277
0.374035
0.34747
0.321557
0.296275
0.271612
0.247559
0.224108
0.201238
0.178911
0.158799
-4.86269e-214
-4.93516e-214
-4.57114e-214
-6.30722e-214
-5.54206e-214
-5.78388e-214
-5.79009e-214
-5.39535e-214
-5.2515e-214
-5.21224e-214
-5.85957e-214
-5.99645e-214
0.228701
0.447212
0.641762
0.83176
1.03355
1.25601
1.50205
1.76501
2.01957
2.21274
2.79224
2.8667
2.83764
2.77252
2.69378
2.60911
2.52215
2.4276
2.30944
2.19823
2.09336
1.99499
1.90053
1.81064
1.72514
1.6438
1.5664
1.49273
1.42264
1.35604
1.29337
1.23295
1.17492
1.11919
1.06719
1.01764
0.970097
0.924436
0.880536
0.838287
0.797588
0.758347
0.720475
0.683891
0.648517
0.614281
0.581114
0.548954
0.517738
0.487413
0.457926
0.429228
0.401277
0.374035
0.34747
0.321557
0.296275
0.271612
0.247559
0.224108
0.201238
0.178911
0.158799
)
;
    }
}


// ************************************************************************* //
