/*--------------------------------*- C++ -*----------------------------------*\
| =========                 |                                                 |
| \\      /  F ield         | OpenFOAM: The Open Source CFD Toolbox           |
|  \\    /   O peration     | Version:  2406                                  |
|   \\  /    A nd           | Website:  www.openfoam.com                      |
|    \\/     M anipulation  |                                                 |
\*---------------------------------------------------------------------------*/
FoamFile
{
    version     2.0;
    format      ascii;
    arch        "LSB;label=32;scalar=64";
    class       volTensorField;
    location    "16/fluidRegion";
    object      Kd.liquid.structure;
}
// * * * * * * * * * * * * * * * * * * * * * * * * * * * * * * * * * * * * * //

dimensions      [1 -3 -1 0 0 0 0];

internalField   nonuniform List<tensor> 
75
(
(418.492 0 0 0 418.492 0 0 0 418.492)
(418.492 0 0 0 418.492 0 0 0 418.492)
(418.492 0 0 0 418.492 0 0 0 418.492)
(418.492 0 0 0 418.492 0 0 0 418.492)
(418.492 0 0 0 418.492 0 0 0 418.492)
(418.341 0 0 0 418.341 0 0 0 418.341)
(418.095 0 0 0 418.095 0 0 0 418.095)
(417.762 0 0 0 417.762 0 0 0 417.762)
(417.349 0 0 0 417.349 0 0 0 417.349)
(416.861 0 0 0 416.861 0 0 0 416.861)
(416.305 0 0 0 416.305 0 0 0 416.305)
(415.69 0 0 0 415.69 0 0 0 415.69)
(438.786 0 0 0 438.786 0 0 0 438.786)
(480.393 0 0 0 480.393 0 0 0 480.393)
(534.423 0 0 0 534.423 0 0 0 534.423)
(599.079 0 0 0 599.079 0 0 0 599.079)
(673.368 0 0 0 673.368 0 0 0 673.368)
(757.126 0 0 0 757.126 0 0 0 757.126)
(850.228 0 0 0 850.228 0 0 0 850.228)
(952.134 0 0 0 952.134 0 0 0 952.134)
(1061.14 0 0 0 1061.14 0 0 0 1061.14)
(1174.01 0 0 0 1174.01 0 0 0 1174.01)
(1301.63 0 0 0 1301.63 0 0 0 1301.63)
(1431.4 0 0 0 1431.4 0 0 0 1431.4)
(1553.03 0 0 0 1553.03 0 0 0 1553.03)
(1665.47 0 0 0 1665.47 0 0 0 1665.47)
(1769.58 0 0 0 1769.58 0 0 0 1769.58)
(1866.29 0 0 0 1866.29 0 0 0 1866.29)
(1956.46 0 0 0 1956.46 0 0 0 1956.46)
(2040.66 0 0 0 2040.66 0 0 0 2040.66)
(2118.89 0 0 0 2118.89 0 0 0 2118.89)
(2191.54 0 0 0 2191.54 0 0 0 2191.54)
(2259.24 0 0 0 2259.24 0 0 0 2259.24)
(2322.54 0 0 0 2322.54 0 0 0 2322.54)
(2381.85 0 0 0 2381.85 0 0 0 2381.85)
(2437.53 0 0 0 2437.53 0 0 0 2437.53)
(2489.87 0 0 0 2489.87 0 0 0 2489.87)
(2539.14 0 0 0 2539.14 0 0 0 2539.14)
(2585.57 0 0 0 2585.57 0 0 0 2585.57)
(2629.39 0 0 0 2629.39 0 0 0 2629.39)
(2670.76 0 0 0 2670.76 0 0 0 2670.76)
(2709.87 0 0 0 2709.87 0 0 0 2709.87)
(2746.88 0 0 0 2746.88 0 0 0 2746.88)
(2781.91 0 0 0 2781.91 0 0 0 2781.91)
(2815.09 0 0 0 2815.09 0 0 0 2815.09)
(2846.51 0 0 0 2846.51 0 0 0 2846.51)
(2876.29 0 0 0 2876.29 0 0 0 2876.29)
(2904.55 0 0 0 2904.55 0 0 0 2904.55)
(2931.36 0 0 0 2931.36 0 0 0 2931.36)
(2956.81 0 0 0 2956.81 0 0 0 2956.81)
(2980.96 0 0 0 2980.96 0 0 0 2980.96)
(3003.88 0 0 0 3003.88 0 0 0 3003.88)
(3025.62 0 0 0 3025.62 0 0 0 3025.62)
(3046.24 0 0 0 3046.24 0 0 0 3046.24)
(3065.78 0 0 0 3065.78 0 0 0 3065.78)
(3084.3 0 0 0 3084.3 0 0 0 3084.3)
(3101.83 0 0 0 3101.83 0 0 0 3101.83)
(3118.42 0 0 0 3118.42 0 0 0 3118.42)
(3134.1 0 0 0 3134.1 0 0 0 3134.1)
(3148.9 0 0 0 3148.9 0 0 0 3148.9)
(3162.86 0 0 0 3162.86 0 0 0 3162.86)
(3176.01 0 0 0 3176.01 0 0 0 3176.01)
(3188.37 0 0 0 3188.37 0 0 0 3188.37)
(3199.97 0 0 0 3199.97 0 0 0 3199.97)
(3210.83 0 0 0 3210.83 0 0 0 3210.83)
(3220.98 0 0 0 3220.98 0 0 0 3220.98)
(3230.44 0 0 0 3230.44 0 0 0 3230.44)
(3239.22 0 0 0 3239.22 0 0 0 3239.22)
(3247.35 0 0 0 3247.35 0 0 0 3247.35)
(3254.84 0 0 0 3254.84 0 0 0 3254.84)
(3261.71 0 0 0 3261.71 0 0 0 3261.71)
(3267.99 0 0 0 3267.99 0 0 0 3267.99)
(3273.68 0 0 0 3273.68 0 0 0 3273.68)
(3278.81 0 0 0 3278.81 0 0 0 3278.81)
(3283.31 0 0 0 3283.31 0 0 0 3283.31)
)
;

boundaryField
{
    inlet
    {
        type            zeroGradient;
    }
    outlet
    {
        type            zeroGradient;
    }
    fixedWalls
    {
        type            zeroGradient;
    }
}


// ************************************************************************* //
