/*--------------------------------*- C++ -*----------------------------------*\
| =========                 |                                                 |
| \\      /  F ield         | OpenFOAM: The Open Source CFD Toolbox           |
|  \\    /   O peration     | Version:  2406                                  |
|   \\  /    A nd           | Website:  www.openfoam.com                      |
|    \\/     M anipulation  |                                                 |
\*---------------------------------------------------------------------------*/
FoamFile
{
    version     2.0;
    format      ascii;
    arch        "LSB;label=32;scalar=64";
    class       volTensorField;
    location    "16/fluidRegion";
    object      KdTotU;
}
// * * * * * * * * * * * * * * * * * * * * * * * * * * * * * * * * * * * * * //

dimensions      [1 -2 -2 0 0 0 0];

internalField   nonuniform List<tensor> 
75
(
(539.428 0 0 0 539.428 0 0 0 539.428)
(539.428 0 0 0 539.428 0 0 0 539.428)
(539.428 0 0 0 539.428 0 0 0 539.428)
(539.428 0 0 0 539.428 0 0 0 539.428)
(539.428 0 0 0 539.428 0 0 0 539.428)
(539.282 0 0 0 539.282 0 0 0 539.282)
(539.103 0 0 0 539.103 0 0 0 539.103)
(538.893 0 0 0 538.893 0 0 0 538.893)
(538.661 0 0 0 538.661 0 0 0 538.661)
(538.419 0 0 0 538.419 0 0 0 538.419)
(538.182 0 0 0 538.182 0 0 0 538.182)
(537.965 0 0 0 537.965 0 0 0 537.965)
(570.281 0 0 0 570.281 0 0 0 570.281)
(630.278 0 0 0 630.278 0 0 0 630.278)
(710.362 0 0 0 710.362 0 0 0 710.362)
(809.008 0 0 0 809.008 0 0 0 809.008)
(926.109 0 0 0 926.109 0 0 0 926.109)
(1062.94 0 0 0 1062.94 0 0 0 1062.94)
(1221.01 0 0 0 1221.01 0 0 0 1221.01)
(1401.31 0 0 0 1401.31 0 0 0 1401.31)
(1602.7 0 0 0 1602.7 0 0 0 1602.7)
(1821.14 0 0 0 1821.14 0 0 0 1821.14)
(2077.05 0 0 0 2077.05 0 0 0 2077.05)
(2350.62 0 0 0 2350.62 0 0 0 2350.62)
(2619.38 0 0 0 2619.38 0 0 0 2619.38)
(2878.45 0 0 0 2878.45 0 0 0 2878.45)
(3126.95 0 0 0 3126.95 0 0 0 3126.95)
(3364.77 0 0 0 3364.77 0 0 0 3364.77)
(3592.17 0 0 0 3592.17 0 0 0 3592.17)
(3809.09 0 0 0 3809.09 0 0 0 3809.09)
(4014.47 0 0 0 4014.47 0 0 0 4014.47)
(4208.22 0 0 0 4208.22 0 0 0 4208.22)
(4391.23 0 0 0 4391.23 0 0 0 4391.23)
(4564.29 0 0 0 4564.29 0 0 0 4564.29)
(4728.04 0 0 0 4728.04 0 0 0 4728.04)
(4883.04 0 0 0 4883.04 0 0 0 4883.04)
(5029.82 0 0 0 5029.82 0 0 0 5029.82)
(5168.88 0 0 0 5168.88 0 0 0 5168.88)
(5300.67 0 0 0 5300.67 0 0 0 5300.67)
(5425.63 0 0 0 5425.63 0 0 0 5425.63)
(5544.14 0 0 0 5544.14 0 0 0 5544.14)
(5656.58 0 0 0 5656.58 0 0 0 5656.58)
(5763.34 0 0 0 5763.34 0 0 0 5763.34)
(5864.71 0 0 0 5864.71 0 0 0 5864.71)
(5960.96 0 0 0 5960.96 0 0 0 5960.96)
(6052.32 0 0 0 6052.32 0 0 0 6052.32)
(6139.09 0 0 0 6139.09 0 0 0 6139.09)
(6221.55 0 0 0 6221.55 0 0 0 6221.55)
(6299.92 0 0 0 6299.92 0 0 0 6299.92)
(6374.39 0 0 0 6374.39 0 0 0 6374.39)
(6445.13 0 0 0 6445.13 0 0 0 6445.13)
(6512.31 0 0 0 6512.31 0 0 0 6512.31)
(6576.07 0 0 0 6576.07 0 0 0 6576.07)
(6636.57 0 0 0 6636.57 0 0 0 6636.57)
(6693.92 0 0 0 6693.92 0 0 0 6693.92)
(6748.27 0 0 0 6748.27 0 0 0 6748.27)
(6799.71 0 0 0 6799.71 0 0 0 6799.71)
(6848.36 0 0 0 6848.36 0 0 0 6848.36)
(6894.33 0 0 0 6894.33 0 0 0 6894.33)
(6937.69 0 0 0 6937.69 0 0 0 6937.69)
(6978.55 0 0 0 6978.55 0 0 0 6978.55)
(7016.98 0 0 0 7016.98 0 0 0 7016.98)
(7053.06 0 0 0 7053.06 0 0 0 7053.06)
(7086.87 0 0 0 7086.87 0 0 0 7086.87)
(7118.46 0 0 0 7118.46 0 0 0 7118.46)
(7147.91 0 0 0 7147.91 0 0 0 7147.91)
(7175.27 0 0 0 7175.27 0 0 0 7175.27)
(7200.61 0 0 0 7200.61 0 0 0 7200.61)
(7223.97 0 0 0 7223.97 0 0 0 7223.97)
(7245.41 0 0 0 7245.41 0 0 0 7245.41)
(7264.98 0 0 0 7264.98 0 0 0 7264.98)
(7282.73 0 0 0 7282.73 0 0 0 7282.73)
(7298.71 0 0 0 7298.71 0 0 0 7298.71)
(7312.96 0 0 0 7312.96 0 0 0 7312.96)
(7325.66 0 0 0 7325.66 0 0 0 7325.66)
)
;

boundaryField
{
    inlet
    {
        type            zeroGradient;
    }
    outlet
    {
        type            zeroGradient;
    }
    fixedWalls
    {
        type            zeroGradient;
    }
}


// ************************************************************************* //
