/*--------------------------------*- C++ -*----------------------------------*\
| =========                 |                                                 |
| \\      /  F ield         | OpenFOAM: The Open Source CFD Toolbox           |
|  \\    /   O peration     | Version:  2406                                  |
|   \\  /    A nd           | Website:  www.openfoam.com                      |
|    \\/     M anipulation  |                                                 |
\*---------------------------------------------------------------------------*/
FoamFile
{
    version     2.0;
    format      ascii;
    arch        "LSB;label=32;scalar=64";
    class       volScalarField;
    location    "16/fluidRegion";
    object      p_rgh;
}
// * * * * * * * * * * * * * * * * * * * * * * * * * * * * * * * * * * * * * //

dimensions      [1 -1 -2 0 0 0 0];

internalField   nonuniform List<scalar> 
75
(
7.21559e+06
7.21557e+06
7.21555e+06
7.21553e+06
7.21551e+06
7.21548e+06
7.21546e+06
7.21543e+06
7.21541e+06
7.21539e+06
7.21536e+06
7.21534e+06
7.21531e+06
7.21528e+06
7.21523e+06
7.21518e+06
7.21512e+06
7.21505e+06
7.21497e+06
7.21488e+06
7.21477e+06
7.21465e+06
7.21452e+06
7.21437e+06
7.21421e+06
7.21403e+06
7.21385e+06
7.21366e+06
7.21346e+06
7.21325e+06
7.21304e+06
7.21282e+06
7.21259e+06
7.21236e+06
7.21212e+06
7.21188e+06
7.21163e+06
7.21137e+06
7.21112e+06
7.21085e+06
7.21059e+06
7.21032e+06
7.21005e+06
7.20977e+06
7.20949e+06
7.2092e+06
7.20892e+06
7.20863e+06
7.20834e+06
7.20804e+06
7.20774e+06
7.20745e+06
7.20714e+06
7.20684e+06
7.20653e+06
7.20623e+06
7.20592e+06
7.20561e+06
7.20529e+06
7.20498e+06
7.20466e+06
7.20435e+06
7.20403e+06
7.20371e+06
7.20339e+06
7.20307e+06
7.20275e+06
7.20243e+06
7.20211e+06
7.20178e+06
7.20146e+06
7.20114e+06
7.20081e+06
7.20049e+06
7.20016e+06
)
;

boundaryField
{
    inlet
    {
        type            fixedFluxPressure;
        gradient        uniform 1068.01;
        value           uniform 7.2156e+06;
    }
    outlet
    {
        type            fixedValue;
        value           uniform 7.2e+06;
    }
    fixedWalls
    {
        type            fixedFluxPressure;
        gradient        nonuniform List<scalar> 
300
(
0
0
0
0
0
0
0
0
0
0
0
0
0
0
7.21593e-17
-3.79254e-18
-4.87613e-17
0
0
0
0
1.75888e-16
-1.02847e-17
-1.43127e-16
0
0
0
0
0
0
0
0
0
0
0
0
0
0
0
0
0
0
0
0
0
-3.40324e-16
5.26089e-18
3.33698e-16
0
0
0
0
-3.38686e-16
2.54552e-18
3.36228e-16
0
0
0
0
0
-3.38068e-16
1.24453e-18
3.379e-16
0
0
0
0
-2.36032e-18
1.23065e-18
2.35742e-18
0
0
0
0
0
0
0
0
0
0
0
0
0
0
0
0
0
0
0
-7.21593e-17
3.79254e-18
4.87613e-17
0
0
0
0
-1.75888e-16
1.02847e-17
1.43127e-16
0
0
0
0
0
0
0
0
0
0
0
0
0
0
0
0
0
0
0
0
0
3.40324e-16
-5.26089e-18
-3.33698e-16
0
0
0
0
3.38686e-16
-2.54552e-18
-3.36228e-16
0
0
0
0
0
3.38068e-16
-1.24453e-18
-3.379e-16
0
0
0
0
2.36032e-18
-1.23065e-18
-2.35742e-18
0
0
0
0
0
0
0
0
0
0
0
0
0
0
0
0
0
0
0
7.21593e-17
-3.79254e-18
-4.87613e-17
0
0
0
0
1.75888e-16
-1.02847e-17
-1.43127e-16
0
0
0
0
0
0
0
0
0
0
0
0
0
0
0
0
0
0
0
0
0
-3.40324e-16
5.26089e-18
3.33698e-16
0
0
0
0
-3.38686e-16
2.54552e-18
3.36228e-16
0
0
0
0
0
-3.38068e-16
1.24453e-18
3.379e-16
0
0
0
0
-2.36032e-18
1.23065e-18
2.35742e-18
0
0
0
0
0
0
0
0
0
0
0
0
0
0
0
0
0
0
0
-7.21593e-17
3.79254e-18
4.87613e-17
0
0
0
0
-1.75888e-16
1.02847e-17
1.43127e-16
0
0
0
0
0
0
0
0
0
0
0
0
0
0
0
0
0
0
0
0
0
3.40324e-16
-5.26089e-18
-3.33698e-16
0
0
0
0
3.38686e-16
-2.54552e-18
-3.36228e-16
0
0
0
0
0
3.38068e-16
-1.24453e-18
-3.379e-16
0
0
0
0
2.36032e-18
-1.23065e-18
-2.35742e-18
0
0
0
0
0
)
;
        value           nonuniform List<scalar> 
300
(
7.21559e+06
7.21557e+06
7.21555e+06
7.21553e+06
7.21551e+06
7.21548e+06
7.21546e+06
7.21543e+06
7.21541e+06
7.21539e+06
7.21536e+06
7.21534e+06
7.21531e+06
7.21528e+06
7.21523e+06
7.21518e+06
7.21512e+06
7.21505e+06
7.21497e+06
7.21488e+06
7.21477e+06
7.21465e+06
7.21452e+06
7.21437e+06
7.21421e+06
7.21403e+06
7.21385e+06
7.21366e+06
7.21346e+06
7.21325e+06
7.21304e+06
7.21282e+06
7.21259e+06
7.21236e+06
7.21212e+06
7.21188e+06
7.21163e+06
7.21137e+06
7.21112e+06
7.21085e+06
7.21059e+06
7.21032e+06
7.21005e+06
7.20977e+06
7.20949e+06
7.2092e+06
7.20892e+06
7.20863e+06
7.20834e+06
7.20804e+06
7.20774e+06
7.20745e+06
7.20714e+06
7.20684e+06
7.20653e+06
7.20623e+06
7.20592e+06
7.20561e+06
7.20529e+06
7.20498e+06
7.20466e+06
7.20435e+06
7.20403e+06
7.20371e+06
7.20339e+06
7.20307e+06
7.20275e+06
7.20243e+06
7.20211e+06
7.20178e+06
7.20146e+06
7.20114e+06
7.20081e+06
7.20049e+06
7.20016e+06
7.21559e+06
7.21557e+06
7.21555e+06
7.21553e+06
7.21551e+06
7.21548e+06
7.21546e+06
7.21543e+06
7.21541e+06
7.21539e+06
7.21536e+06
7.21534e+06
7.21531e+06
7.21528e+06
7.21523e+06
7.21518e+06
7.21512e+06
7.21505e+06
7.21497e+06
7.21488e+06
7.21477e+06
7.21465e+06
7.21452e+06
7.21437e+06
7.21421e+06
7.21403e+06
7.21385e+06
7.21366e+06
7.21346e+06
7.21325e+06
7.21304e+06
7.21282e+06
7.21259e+06
7.21236e+06
7.21212e+06
7.21188e+06
7.21163e+06
7.21137e+06
7.21112e+06
7.21085e+06
7.21059e+06
7.21032e+06
7.21005e+06
7.20977e+06
7.20949e+06
7.2092e+06
7.20892e+06
7.20863e+06
7.20834e+06
7.20804e+06
7.20774e+06
7.20745e+06
7.20714e+06
7.20684e+06
7.20653e+06
7.20623e+06
7.20592e+06
7.20561e+06
7.20529e+06
7.20498e+06
7.20466e+06
7.20435e+06
7.20403e+06
7.20371e+06
7.20339e+06
7.20307e+06
7.20275e+06
7.20243e+06
7.20211e+06
7.20178e+06
7.20146e+06
7.20114e+06
7.20081e+06
7.20049e+06
7.20016e+06
7.21559e+06
7.21557e+06
7.21555e+06
7.21553e+06
7.21551e+06
7.21548e+06
7.21546e+06
7.21543e+06
7.21541e+06
7.21539e+06
7.21536e+06
7.21534e+06
7.21531e+06
7.21528e+06
7.21523e+06
7.21518e+06
7.21512e+06
7.21505e+06
7.21497e+06
7.21488e+06
7.21477e+06
7.21465e+06
7.21452e+06
7.21437e+06
7.21421e+06
7.21403e+06
7.21385e+06
7.21366e+06
7.21346e+06
7.21325e+06
7.21304e+06
7.21282e+06
7.21259e+06
7.21236e+06
7.21212e+06
7.21188e+06
7.21163e+06
7.21137e+06
7.21112e+06
7.21085e+06
7.21059e+06
7.21032e+06
7.21005e+06
7.20977e+06
7.20949e+06
7.2092e+06
7.20892e+06
7.20863e+06
7.20834e+06
7.20804e+06
7.20774e+06
7.20745e+06
7.20714e+06
7.20684e+06
7.20653e+06
7.20623e+06
7.20592e+06
7.20561e+06
7.20529e+06
7.20498e+06
7.20466e+06
7.20435e+06
7.20403e+06
7.20371e+06
7.20339e+06
7.20307e+06
7.20275e+06
7.20243e+06
7.20211e+06
7.20178e+06
7.20146e+06
7.20114e+06
7.20081e+06
7.20049e+06
7.20016e+06
7.21559e+06
7.21557e+06
7.21555e+06
7.21553e+06
7.21551e+06
7.21548e+06
7.21546e+06
7.21543e+06
7.21541e+06
7.21539e+06
7.21536e+06
7.21534e+06
7.21531e+06
7.21528e+06
7.21523e+06
7.21518e+06
7.21512e+06
7.21505e+06
7.21497e+06
7.21488e+06
7.21477e+06
7.21465e+06
7.21452e+06
7.21437e+06
7.21421e+06
7.21403e+06
7.21385e+06
7.21366e+06
7.21346e+06
7.21325e+06
7.21304e+06
7.21282e+06
7.21259e+06
7.21236e+06
7.21212e+06
7.21188e+06
7.21163e+06
7.21137e+06
7.21112e+06
7.21085e+06
7.21059e+06
7.21032e+06
7.21005e+06
7.20977e+06
7.20949e+06
7.2092e+06
7.20892e+06
7.20863e+06
7.20834e+06
7.20804e+06
7.20774e+06
7.20745e+06
7.20714e+06
7.20684e+06
7.20653e+06
7.20623e+06
7.20592e+06
7.20561e+06
7.20529e+06
7.20498e+06
7.20466e+06
7.20435e+06
7.20403e+06
7.20371e+06
7.20339e+06
7.20307e+06
7.20275e+06
7.20243e+06
7.20211e+06
7.20178e+06
7.20146e+06
7.20114e+06
7.20081e+06
7.20049e+06
7.20016e+06
)
;
    }
}


// ************************************************************************* //
