/*--------------------------------*- C++ -*----------------------------------*\
| =========                 |                                                 |
| \\      /  F ield         | OpenFOAM: The Open Source CFD Toolbox           |
|  \\    /   O peration     | Version:  2406                                  |
|   \\  /    A nd           | Website:  www.openfoam.com                      |
|    \\/     M anipulation  |                                                 |
\*---------------------------------------------------------------------------*/
FoamFile
{
    version     2.0;
    format      ascii;
    arch        "LSB;label=32;scalar=64";
    class       volScalarField;
    location    "30/fluidRegion";
    object      alphaRhoMagU.vapour;
}
// * * * * * * * * * * * * * * * * * * * * * * * * * * * * * * * * * * * * * //

dimensions      [1 -2 -1 0 0 0 0];

internalField   nonuniform List<scalar> 
105
(
0
0
0
0
0
0
0
0
0
0
0
0
0
0.0240561
0.207903
0.571311
1.09952
1.83218
2.79838
4.02294
5.51295
7.25315
9.19173
11.2004
13.2339
15.2862
17.3568
19.4454
21.5515
23.6747
25.8143
27.9697
30.1403
32.3253
34.5241
36.736
38.9604
41.1966
43.4494
45.7211
48.0109
50.3176
52.6399
54.9766
57.3262
59.6888
62.0561
64.3788
66.656
68.9276
71.1916
73.4549
75.7195
77.9873
80.2595
82.5369
84.82
87.1089
89.404
91.7052
94.0125
96.3258
98.645
100.97
103.3
105.636
107.977
110.323
112.674
115.03
117.39
119.754
122.122
124.494
126.869
129.248
131.631
134.016
136.405
138.796
141.19
143.586
145.985
148.386
150.788
153.193
155.6
158.008
160.418
162.83
165.243
167.657
170.073
172.49
174.908
177.327
179.747
182.167
184.59
187.007
189.441
191.838
194.314
196.624
199.311
)
;

boundaryField
{
    inlet
    {
        type            calculated;
        value           uniform 0;
    }
    outlet
    {
        type            calculated;
        value           uniform 199.258;
    }
    fixedWalls
    {
        type            calculated;
        value           nonuniform List<scalar> 
420
(
0
0
0
0
0
0
0
0
0
0
0
0
0
0.0240561
0.207903
0.571311
1.09952
1.83218
2.79838
4.02294
5.51295
7.25315
9.19173
11.2004
13.2339
15.2862
17.3568
19.4454
21.5515
23.6747
25.8143
27.9697
30.1403
32.3253
34.5241
36.736
38.9604
41.1966
43.4494
45.7211
48.0109
50.3176
52.6399
54.9766
57.3262
59.6888
62.0561
64.3788
66.656
68.9276
71.1916
73.4549
75.7195
77.9873
80.2595
82.5369
84.82
87.1089
89.404
91.7052
94.0125
96.3258
98.645
100.97
103.3
105.636
107.977
110.323
112.674
115.03
117.39
119.754
122.122
124.494
126.869
129.248
131.631
134.016
136.405
138.796
141.19
143.586
145.985
148.386
150.788
153.193
155.6
158.008
160.418
162.83
165.243
167.657
170.073
172.49
174.908
177.327
179.747
182.167
184.59
187.007
189.441
191.838
194.314
196.624
199.311
0
0
0
0
0
0
0
0
0
0
0
0
0
0.0240561
0.207903
0.571311
1.09952
1.83218
2.79838
4.02294
5.51295
7.25315
9.19173
11.2004
13.2339
15.2862
17.3568
19.4454
21.5515
23.6747
25.8143
27.9697
30.1403
32.3253
34.5241
36.736
38.9604
41.1966
43.4494
45.7211
48.0109
50.3176
52.6399
54.9766
57.3262
59.6888
62.0561
64.3788
66.656
68.9276
71.1916
73.4549
75.7195
77.9873
80.2595
82.5369
84.82
87.1089
89.404
91.7052
94.0125
96.3258
98.645
100.97
103.3
105.636
107.977
110.323
112.674
115.03
117.39
119.754
122.122
124.494
126.869
129.248
131.631
134.016
136.405
138.796
141.19
143.586
145.985
148.386
150.788
153.193
155.6
158.008
160.418
162.83
165.243
167.657
170.073
172.49
174.908
177.327
179.747
182.167
184.59
187.007
189.441
191.838
194.314
196.624
199.311
0
0
0
0
0
0
0
0
0
0
0
0
0
0.0240561
0.207903
0.571311
1.09952
1.83218
2.79838
4.02294
5.51295
7.25315
9.19173
11.2004
13.2339
15.2862
17.3568
19.4454
21.5515
23.6747
25.8143
27.9697
30.1403
32.3253
34.5241
36.736
38.9604
41.1966
43.4494
45.7211
48.0109
50.3176
52.6399
54.9766
57.3262
59.6888
62.0561
64.3788
66.656
68.9276
71.1916
73.4549
75.7195
77.9873
80.2595
82.5369
84.82
87.1089
89.404
91.7052
94.0125
96.3258
98.645
100.97
103.3
105.636
107.977
110.323
112.674
115.03
117.39
119.754
122.122
124.494
126.869
129.248
131.631
134.016
136.405
138.796
141.19
143.586
145.985
148.386
150.788
153.193
155.6
158.008
160.418
162.83
165.243
167.657
170.073
172.49
174.908
177.327
179.747
182.167
184.59
187.007
189.441
191.838
194.314
196.624
199.311
0
0
0
0
0
0
0
0
0
0
0
0
0
0.0240561
0.207903
0.571311
1.09952
1.83218
2.79838
4.02294
5.51295
7.25315
9.19173
11.2004
13.2339
15.2862
17.3568
19.4454
21.5515
23.6747
25.8143
27.9697
30.1403
32.3253
34.5241
36.736
38.9604
41.1966
43.4494
45.7211
48.0109
50.3176
52.6399
54.9766
57.3262
59.6888
62.0561
64.3788
66.656
68.9276
71.1916
73.4549
75.7195
77.9873
80.2595
82.5369
84.82
87.1089
89.404
91.7052
94.0125
96.3258
98.645
100.97
103.3
105.636
107.977
110.323
112.674
115.03
117.39
119.754
122.122
124.494
126.869
129.248
131.631
134.016
136.405
138.796
141.19
143.586
145.985
148.386
150.788
153.193
155.6
158.008
160.418
162.83
165.243
167.657
170.073
172.49
174.908
177.327
179.747
182.167
184.59
187.007
189.441
191.838
194.314
196.624
199.311
)
;
    }
}


// ************************************************************************* //
