/*--------------------------------*- C++ -*----------------------------------*\
| =========                 |                                                 |
| \\      /  F ield         | OpenFOAM: The Open Source CFD Toolbox           |
|  \\    /   O peration     | Version:  2406                                  |
|   \\  /    A nd           | Website:  www.openfoam.com                      |
|    \\/     M anipulation  |                                                 |
\*---------------------------------------------------------------------------*/
FoamFile
{
    version     2.0;
    format      ascii;
    arch        "LSB;label=32;scalar=64";
    class       surfaceScalarField;
    location    "30/fluidRegion";
    object      alphaPhi.vapour;
}
// * * * * * * * * * * * * * * * * * * * * * * * * * * * * * * * * * * * * * //

dimensions      [0 3 -1 0 0 0 0];

oriented        oriented;

internalField   nonuniform List<scalar> 
104
(
0
0
0
0
0
0
0
0
0
0
0
0
0
1.66e-07
1.36937e-06
3.48262e-06
6.64893e-06
1.10524e-05
1.68975e-05
2.43375e-05
3.34117e-05
4.40119e-05
5.57946e-05
6.78369e-05
8.00053e-05
9.22816e-05
0.000104661
0.00011714
0.000129716
0.000142388
0.000155151
0.000168002
0.000180938
0.000193956
0.000207052
0.000220223
0.000233465
0.000246774
0.000260193
0.000273725
0.000287364
0.000301102
0.000314932
0.000328846
0.000342837
0.0003569
0.000371027
0.000384985
0.000398614
0.000412135
0.000425622
0.000439107
0.000452608
0.000466137
0.000479701
0.000493304
0.000506947
0.000520634
0.000534364
0.000548139
0.000561958
0.000575821
0.000589727
0.000603676
0.000617667
0.000631699
0.000645771
0.000659884
0.000674035
0.000688224
0.00070245
0.000716712
0.00073101
0.000745343
0.000759709
0.000774109
0.000788541
0.000803005
0.0008175
0.000832026
0.000846582
0.000861168
0.000875782
0.000890425
0.000905096
0.000919794
0.000934519
0.000949272
0.000964051
0.000978856
0.000993688
0.00100855
0.00102343
0.00103834
0.00105328
0.00106824
0.00108323
0.00109824
0.00111327
0.00112833
0.00114341
0.00115852
0.00117364
0.0011888
)
;

boundaryField
{
    inlet
    {
        type            calculated;
        value           uniform -0;
    }
    outlet
    {
        type            calculated;
        value           uniform 0.00120429;
    }
    fixedWalls
    {
        type            calculated;
        value           uniform 0;
    }
}


// ************************************************************************* //
