/*--------------------------------*- C++ -*----------------------------------*\
| =========                 |                                                 |
| \\      /  F ield         | OpenFOAM: The Open Source CFD Toolbox           |
|  \\    /   O peration     | Version:  2406                                  |
|   \\  /    A nd           | Website:  www.openfoam.com                      |
|    \\/     M anipulation  |                                                 |
\*---------------------------------------------------------------------------*/
FoamFile
{
    version     2.0;
    format      ascii;
    arch        "LSB;label=32;scalar=64";
    class       volScalarField;
    location    "30/fluidRegion";
    object      dgdt.vapour;
}
// * * * * * * * * * * * * * * * * * * * * * * * * * * * * * * * * * * * * * //

dimensions      [0 0 -1 0 0 0 0];

internalField   nonuniform List<scalar> 
105
(
-0
-0
-0
-0
-0
-0
-0
-0
-0
-0
-0
-0
-0
0.0204186
0.149224
0.262172
0.392887
0.546458
0.725423
0.923425
1.12636
1.31588
1.46283
1.49514
1.51084
1.52428
1.53708
1.54953
1.56165
1.57342
1.58482
1.59581
1.60638
1.61652
1.62623
1.63551
1.64437
1.65282
1.6663
1.68047
1.69369
1.70598
1.71736
1.72786
1.73749
1.74631
1.75432
1.73344
1.69266
1.67926
1.6749
1.67471
1.6768
1.68024
1.68453
1.68935
1.69451
1.69986
1.70533
1.71084
1.71635
1.72183
1.72725
1.7326
1.73786
1.74302
1.74809
1.75305
1.7579
1.76266
1.76731
1.77185
1.7763
1.78066
1.78492
1.78909
1.79317
1.79718
1.80111
1.80497
1.80876
1.81248
1.81614
1.81975
1.8233
1.82681
1.83027
1.83368
1.83706
1.8404
1.84371
1.84699
1.85025
1.85349
1.8567
1.8599
1.86309
1.86627
1.86942
1.8726
1.87569
1.87898
1.88183
1.88558
1.92742
)
;

boundaryField
{
    inlet
    {
        type            calculated;
        value           uniform -0;
    }
    outlet
    {
        type            calculated;
        value           uniform 1.92742;
    }
    fixedWalls
    {
        type            calculated;
        value           nonuniform List<scalar> 
420
(
-0
-0
-0
-0
-0
-0
-0
-0
-0
-0
-0
-0
-0
0.0204186
0.149224
0.262172
0.392887
0.546458
0.725423
0.923425
1.12636
1.31588
1.46283
1.49514
1.51084
1.52428
1.53708
1.54953
1.56165
1.57342
1.58482
1.59581
1.60638
1.61652
1.62623
1.63551
1.64437
1.65282
1.6663
1.68047
1.69369
1.70598
1.71736
1.72786
1.73749
1.74631
1.75432
1.73344
1.69266
1.67926
1.6749
1.67471
1.6768
1.68024
1.68453
1.68935
1.69451
1.69986
1.70533
1.71084
1.71635
1.72183
1.72725
1.7326
1.73786
1.74302
1.74809
1.75305
1.7579
1.76266
1.76731
1.77185
1.7763
1.78066
1.78492
1.78909
1.79317
1.79718
1.80111
1.80497
1.80876
1.81248
1.81614
1.81975
1.8233
1.82681
1.83027
1.83368
1.83706
1.8404
1.84371
1.84699
1.85025
1.85349
1.8567
1.8599
1.86309
1.86627
1.86942
1.8726
1.87569
1.87898
1.88183
1.88558
1.92742
-0
-0
-0
-0
-0
-0
-0
-0
-0
-0
-0
-0
-0
0.0204186
0.149224
0.262172
0.392887
0.546458
0.725423
0.923425
1.12636
1.31588
1.46283
1.49514
1.51084
1.52428
1.53708
1.54953
1.56165
1.57342
1.58482
1.59581
1.60638
1.61652
1.62623
1.63551
1.64437
1.65282
1.6663
1.68047
1.69369
1.70598
1.71736
1.72786
1.73749
1.74631
1.75432
1.73344
1.69266
1.67926
1.6749
1.67471
1.6768
1.68024
1.68453
1.68935
1.69451
1.69986
1.70533
1.71084
1.71635
1.72183
1.72725
1.7326
1.73786
1.74302
1.74809
1.75305
1.7579
1.76266
1.76731
1.77185
1.7763
1.78066
1.78492
1.78909
1.79317
1.79718
1.80111
1.80497
1.80876
1.81248
1.81614
1.81975
1.8233
1.82681
1.83027
1.83368
1.83706
1.8404
1.84371
1.84699
1.85025
1.85349
1.8567
1.8599
1.86309
1.86627
1.86942
1.8726
1.87569
1.87898
1.88183
1.88558
1.92742
-0
-0
-0
-0
-0
-0
-0
-0
-0
-0
-0
-0
-0
0.0204186
0.149224
0.262172
0.392887
0.546458
0.725423
0.923425
1.12636
1.31588
1.46283
1.49514
1.51084
1.52428
1.53708
1.54953
1.56165
1.57342
1.58482
1.59581
1.60638
1.61652
1.62623
1.63551
1.64437
1.65282
1.6663
1.68047
1.69369
1.70598
1.71736
1.72786
1.73749
1.74631
1.75432
1.73344
1.69266
1.67926
1.6749
1.67471
1.6768
1.68024
1.68453
1.68935
1.69451
1.69986
1.70533
1.71084
1.71635
1.72183
1.72725
1.7326
1.73786
1.74302
1.74809
1.75305
1.7579
1.76266
1.76731
1.77185
1.7763
1.78066
1.78492
1.78909
1.79317
1.79718
1.80111
1.80497
1.80876
1.81248
1.81614
1.81975
1.8233
1.82681
1.83027
1.83368
1.83706
1.8404
1.84371
1.84699
1.85025
1.85349
1.8567
1.8599
1.86309
1.86627
1.86942
1.8726
1.87569
1.87898
1.88183
1.88558
1.92742
-0
-0
-0
-0
-0
-0
-0
-0
-0
-0
-0
-0
-0
0.0204186
0.149224
0.262172
0.392887
0.546458
0.725423
0.923425
1.12636
1.31588
1.46283
1.49514
1.51084
1.52428
1.53708
1.54953
1.56165
1.57342
1.58482
1.59581
1.60638
1.61652
1.62623
1.63551
1.64437
1.65282
1.6663
1.68047
1.69369
1.70598
1.71736
1.72786
1.73749
1.74631
1.75432
1.73344
1.69266
1.67926
1.6749
1.67471
1.6768
1.68024
1.68453
1.68935
1.69451
1.69986
1.70533
1.71084
1.71635
1.72183
1.72725
1.7326
1.73786
1.74302
1.74809
1.75305
1.7579
1.76266
1.76731
1.77185
1.7763
1.78066
1.78492
1.78909
1.79317
1.79718
1.80111
1.80497
1.80876
1.81248
1.81614
1.81975
1.8233
1.82681
1.83027
1.83368
1.83706
1.8404
1.84371
1.84699
1.85025
1.85349
1.8567
1.8599
1.86309
1.86627
1.86942
1.8726
1.87569
1.87898
1.88183
1.88558
1.92742
)
;
    }
}


// ************************************************************************* //
