/*--------------------------------*- C++ -*----------------------------------*\
| =========                 |                                                 |
| \\      /  F ield         | OpenFOAM: The Open Source CFD Toolbox           |
|  \\    /   O peration     | Version:  2406                                  |
|   \\  /    A nd           | Website:  www.openfoam.com                      |
|    \\/     M anipulation  |                                                 |
\*---------------------------------------------------------------------------*/
FoamFile
{
    version     2.0;
    format      ascii;
    arch        "LSB;label=32;scalar=64";
    class       volTensorField;
    location    "30/fluidRegion";
    object      Kd.liquid.structure;
}
// * * * * * * * * * * * * * * * * * * * * * * * * * * * * * * * * * * * * * //

dimensions      [1 -3 -1 0 0 0 0];

internalField   nonuniform List<tensor> 
105
(
(418.523 0 0 0 418.523 0 0 0 418.523)
(418.523 0 0 0 418.523 0 0 0 418.523)
(418.523 0 0 0 418.523 0 0 0 418.523)
(418.523 0 0 0 418.523 0 0 0 418.523)
(418.523 0 0 0 418.523 0 0 0 418.523)
(417.538 0 0 0 417.538 0 0 0 417.538)
(416.742 0 0 0 416.742 0 0 0 416.742)
(415.963 0 0 0 415.963 0 0 0 415.963)
(415.199 0 0 0 415.199 0 0 0 415.199)
(414.45 0 0 0 414.45 0 0 0 414.45)
(413.716 0 0 0 413.716 0 0 0 413.716)
(412.994 0 0 0 412.994 0 0 0 412.994)
(412.285 0 0 0 412.285 0 0 0 412.285)
(416.949 0 0 0 416.949 0 0 0 416.949)
(448.405 0 0 0 448.405 0 0 0 448.405)
(503.346 0 0 0 503.346 0 0 0 503.346)
(575.347 0 0 0 575.347 0 0 0 575.347)
(666.825 0 0 0 666.825 0 0 0 666.825)
(777.645 0 0 0 777.645 0 0 0 777.645)
(906.71 0 0 0 906.71 0 0 0 906.71)
(1050.96 0 0 0 1050.96 0 0 0 1050.96)
(1205.81 0 0 0 1205.81 0 0 0 1205.81)
(1364.88 0 0 0 1364.88 0 0 0 1364.88)
(1517.82 0 0 0 1517.82 0 0 0 1517.82)
(1662.02 0 0 0 1662.02 0 0 0 1662.02)
(1798.52 0 0 0 1798.52 0 0 0 1798.52)
(1928.52 0 0 0 1928.52 0 0 0 1928.52)
(2052.99 0 0 0 2052.99 0 0 0 2052.99)
(2172.69 0 0 0 2172.69 0 0 0 2172.69)
(2288.24 0 0 0 2288.24 0 0 0 2288.24)
(2400.15 0 0 0 2400.15 0 0 0 2400.15)
(2508.84 0 0 0 2508.84 0 0 0 2508.84)
(2614.67 0 0 0 2614.67 0 0 0 2614.67)
(2717.93 0 0 0 2717.93 0 0 0 2717.93)
(2818.88 0 0 0 2818.88 0 0 0 2818.88)
(2917.75 0 0 0 2917.75 0 0 0 2917.75)
(3014.71 0 0 0 3014.71 0 0 0 3014.71)
(3109.95 0 0 0 3109.95 0 0 0 3109.95)
(3203.78 0 0 0 3203.78 0 0 0 3203.78)
(3296.49 0 0 0 3296.49 0 0 0 3296.49)
(3388.18 0 0 0 3388.18 0 0 0 3388.18)
(3478.93 0 0 0 3478.93 0 0 0 3478.93)
(3568.77 0 0 0 3568.77 0 0 0 3568.77)
(3657.76 0 0 0 3657.76 0 0 0 3657.76)
(3745.94 0 0 0 3745.94 0 0 0 3745.94)
(3833.31 0 0 0 3833.31 0 0 0 3833.31)
(3920.19 0 0 0 3920.19 0 0 0 3920.19)
(4030.07 0 0 0 4030.07 0 0 0 4030.07)
(4195.24 0 0 0 4195.24 0 0 0 4195.24)
(4361.21 0 0 0 4361.21 0 0 0 4361.21)
(4528.16 0 0 0 4528.16 0 0 0 4528.16)
(4696.84 0 0 0 4696.84 0 0 0 4696.84)
(4867.44 0 0 0 4867.44 0 0 0 4867.44)
(5040.16 0 0 0 5040.16 0 0 0 5040.16)
(5215.1 0 0 0 5215.1 0 0 0 5215.1)
(5392.33 0 0 0 5392.33 0 0 0 5392.33)
(5571.92 0 0 0 5571.92 0 0 0 5571.92)
(5753.9 0 0 0 5753.9 0 0 0 5753.9)
(5938.32 0 0 0 5938.32 0 0 0 5938.32)
(6125.18 0 0 0 6125.18 0 0 0 6125.18)
(6314.52 0 0 0 6314.52 0 0 0 6314.52)
(6506.36 0 0 0 6506.36 0 0 0 6506.36)
(6700.71 0 0 0 6700.71 0 0 0 6700.71)
(6897.58 0 0 0 6897.58 0 0 0 6897.58)
(7097 0 0 0 7097 0 0 0 7097)
(7298.97 0 0 0 7298.97 0 0 0 7298.97)
(7503.51 0 0 0 7503.51 0 0 0 7503.51)
(7710.63 0 0 0 7710.63 0 0 0 7710.63)
(7920.36 0 0 0 7920.36 0 0 0 7920.36)
(8132.7 0 0 0 8132.7 0 0 0 8132.7)
(8347.67 0 0 0 8347.67 0 0 0 8347.67)
(8565.29 0 0 0 8565.29 0 0 0 8565.29)
(8785.58 0 0 0 8785.58 0 0 0 8785.58)
(9008.56 0 0 0 9008.56 0 0 0 9008.56)
(9234.24 0 0 0 9234.24 0 0 0 9234.24)
(9462.66 0 0 0 9462.66 0 0 0 9462.66)
(9693.83 0 0 0 9693.83 0 0 0 9693.83)
(9927.78 0 0 0 9927.78 0 0 0 9927.78)
(10164.5 0 0 0 10164.5 0 0 0 10164.5)
(10404.1 0 0 0 10404.1 0 0 0 10404.1)
(10646.6 0 0 0 10646.6 0 0 0 10646.6)
(10891.9 0 0 0 10891.9 0 0 0 10891.9)
(11140.2 0 0 0 11140.2 0 0 0 11140.2)
(11391.4 0 0 0 11391.4 0 0 0 11391.4)
(11645.6 0 0 0 11645.6 0 0 0 11645.6)
(11902.8 0 0 0 11902.8 0 0 0 11902.8)
(12163 0 0 0 12163 0 0 0 12163)
(12426.4 0 0 0 12426.4 0 0 0 12426.4)
(12692.8 0 0 0 12692.8 0 0 0 12692.8)
(12962.5 0 0 0 12962.5 0 0 0 12962.5)
(13235.4 0 0 0 13235.4 0 0 0 13235.4)
(13511.7 0 0 0 13511.7 0 0 0 13511.7)
(13791.3 0 0 0 13791.3 0 0 0 13791.3)
(14074.4 0 0 0 14074.4 0 0 0 14074.4)
(14360.9 0 0 0 14360.9 0 0 0 14360.9)
(14650.9 0 0 0 14650.9 0 0 0 14650.9)
(14944.7 0 0 0 14944.7 0 0 0 14944.7)
(15241.4 0 0 0 15241.4 0 0 0 15241.4)
(15543 0 0 0 15543 0 0 0 15543)
(15845.2 0 0 0 15845.2 0 0 0 15845.2)
(16157.7 0 0 0 16157.7 0 0 0 16157.7)
(16459.4 0 0 0 16459.4 0 0 0 16459.4)
(16796.1 0 0 0 16796.1 0 0 0 16796.1)
(17069.9 0 0 0 17069.9 0 0 0 17069.9)
(17491.9 0 0 0 17491.9 0 0 0 17491.9)
)
;

boundaryField
{
    inlet
    {
        type            zeroGradient;
    }
    outlet
    {
        type            zeroGradient;
    }
    fixedWalls
    {
        type            zeroGradient;
    }
}


// ************************************************************************* //
