/*--------------------------------*- C++ -*----------------------------------*\
| =========                 |                                                 |
| \\      /  F ield         | OpenFOAM: The Open Source CFD Toolbox           |
|  \\    /   O peration     | Version:  2406                                  |
|   \\  /    A nd           | Website:  www.openfoam.com                      |
|    \\/     M anipulation  |                                                 |
\*---------------------------------------------------------------------------*/
FoamFile
{
    version     2.0;
    format      ascii;
    arch        "LSB;label=32;scalar=64";
    class       volTensorField;
    location    "30/fluidRegion";
    object      KdTotU;
}
// * * * * * * * * * * * * * * * * * * * * * * * * * * * * * * * * * * * * * //

dimensions      [1 -2 -2 0 0 0 0];

internalField   nonuniform List<tensor> 
105
(
(539.522 0 0 0 539.522 0 0 0 539.522)
(539.522 0 0 0 539.522 0 0 0 539.522)
(539.522 0 0 0 539.522 0 0 0 539.522)
(539.522 0 0 0 539.522 0 0 0 539.522)
(539.522 0 0 0 539.522 0 0 0 539.522)
(538.58 0 0 0 538.58 0 0 0 538.58)
(538.241 0 0 0 538.241 0 0 0 538.241)
(537.984 0 0 0 537.984 0 0 0 537.984)
(537.805 0 0 0 537.805 0 0 0 537.805)
(537.704 0 0 0 537.704 0 0 0 537.704)
(537.679 0 0 0 537.679 0 0 0 537.679)
(537.729 0 0 0 537.729 0 0 0 537.729)
(537.851 0 0 0 537.851 0 0 0 537.851)
(545.315 0 0 0 545.315 0 0 0 545.315)
(589.545 0 0 0 589.545 0 0 0 589.545)
(667.821 0 0 0 667.821 0 0 0 667.821)
(772.941 0 0 0 772.941 0 0 0 772.941)
(910.398 0 0 0 910.398 0 0 0 910.398)
(1083.08 0 0 0 1083.08 0 0 0 1083.08)
(1293.05 0 0 0 1293.05 0 0 0 1293.05)
(1539.56 0 0 0 1539.56 0 0 0 1539.56)
(1818.7 0 0 0 1818.7 0 0 0 1818.7)
(2121.84 0 0 0 2121.84 0 0 0 2121.84)
(2430.34 0 0 0 2430.34 0 0 0 2430.34)
(2736.22 0 0 0 2736.22 0 0 0 2736.22)
(3039.05 0 0 0 3039.05 0 0 0 3039.05)
(3339.23 0 0 0 3339.23 0 0 0 3339.23)
(3637.11 0 0 0 3637.11 0 0 0 3637.11)
(3932.91 0 0 0 3932.91 0 0 0 3932.91)
(4226.81 0 0 0 4226.81 0 0 0 4226.81)
(4518.91 0 0 0 4518.91 0 0 0 4518.91)
(4809.27 0 0 0 4809.27 0 0 0 4809.27)
(5097.94 0 0 0 5097.94 0 0 0 5097.94)
(5384.93 0 0 0 5384.93 0 0 0 5384.93)
(5670.24 0 0 0 5670.24 0 0 0 5670.24)
(5953.87 0 0 0 5953.87 0 0 0 5953.87)
(6235.8 0 0 0 6235.8 0 0 0 6235.8)
(6516.01 0 0 0 6516.01 0 0 0 6516.01)
(6795 0 0 0 6795 0 0 0 6795)
(7073.17 0 0 0 7073.17 0 0 0 7073.17)
(7350.49 0 0 0 7350.49 0 0 0 7350.49)
(7626.81 0 0 0 7626.81 0 0 0 7626.81)
(7901.99 0 0 0 7901.99 0 0 0 7901.99)
(8175.89 0 0 0 8175.89 0 0 0 8175.89)
(8448.37 0 0 0 8448.37 0 0 0 8448.37)
(8719.32 0 0 0 8719.32 0 0 0 8719.32)
(8988.58 0 0 0 8988.58 0 0 0 8988.58)
(9304.83 0 0 0 9304.83 0 0 0 9304.83)
(9738.83 0 0 0 9738.83 0 0 0 9738.83)
(10168.5 0 0 0 10168.5 0 0 0 10168.5)
(10598.3 0 0 0 10598.3 0 0 0 10598.3)
(11030.7 0 0 0 11030.7 0 0 0 11030.7)
(11466.5 0 0 0 11466.5 0 0 0 11466.5)
(11905.9 0 0 0 11905.9 0 0 0 11905.9)
(12349 0 0 0 12349 0 0 0 12349)
(12795.9 0 0 0 12795.9 0 0 0 12795.9)
(13246.5 0 0 0 13246.5 0 0 0 13246.5)
(13700.5 0 0 0 13700.5 0 0 0 13700.5)
(14158 0 0 0 14158 0 0 0 14158)
(14618.8 0 0 0 14618.8 0 0 0 14618.8)
(15082.7 0 0 0 15082.7 0 0 0 15082.7)
(15549.5 0 0 0 15549.5 0 0 0 15549.5)
(16019.2 0 0 0 16019.2 0 0 0 16019.2)
(16491.4 0 0 0 16491.4 0 0 0 16491.4)
(16966.2 0 0 0 16966.2 0 0 0 16966.2)
(17443.3 0 0 0 17443.3 0 0 0 17443.3)
(17922.5 0 0 0 17922.5 0 0 0 17922.5)
(18403.7 0 0 0 18403.7 0 0 0 18403.7)
(18886.9 0 0 0 18886.9 0 0 0 18886.9)
(19371.7 0 0 0 19371.7 0 0 0 19371.7)
(19858.1 0 0 0 19858.1 0 0 0 19858.1)
(20346 0 0 0 20346 0 0 0 20346)
(20835.1 0 0 0 20835.1 0 0 0 20835.1)
(21325.5 0 0 0 21325.5 0 0 0 21325.5)
(21816.9 0 0 0 21816.9 0 0 0 21816.9)
(22309.2 0 0 0 22309.2 0 0 0 22309.2)
(22802.3 0 0 0 22802.3 0 0 0 22802.3)
(23296.2 0 0 0 23296.2 0 0 0 23296.2)
(23790.6 0 0 0 23790.6 0 0 0 23790.6)
(24285.5 0 0 0 24285.5 0 0 0 24285.5)
(24780.8 0 0 0 24780.8 0 0 0 24780.8)
(25276.4 0 0 0 25276.4 0 0 0 25276.4)
(25772.3 0 0 0 25772.3 0 0 0 25772.3)
(26268.2 0 0 0 26268.2 0 0 0 26268.2)
(26764.2 0 0 0 26764.2 0 0 0 26764.2)
(27260.1 0 0 0 27260.1 0 0 0 27260.1)
(27756 0 0 0 27756 0 0 0 27756)
(28251.6 0 0 0 28251.6 0 0 0 28251.6)
(28747 0 0 0 28747 0 0 0 28747)
(29242 0 0 0 29242 0 0 0 29242)
(29736.6 0 0 0 29736.6 0 0 0 29736.6)
(30230.6 0 0 0 30230.6 0 0 0 30230.6)
(30724 0 0 0 30724 0 0 0 30724)
(31216.7 0 0 0 31216.7 0 0 0 31216.7)
(31708.7 0 0 0 31708.7 0 0 0 31708.7)
(32199.6 0 0 0 32199.6 0 0 0 32199.6)
(32690.5 0 0 0 32690.5 0 0 0 32690.5)
(33179 0 0 0 33179 0 0 0 33179)
(33670.1 0 0 0 33670.1 0 0 0 33670.1)
(34153 0 0 0 34153 0 0 0 34153)
(34651.4 0 0 0 34651.4 0 0 0 34651.4)
(35114 0 0 0 35114 0 0 0 35114)
(35650.7 0 0 0 35650.7 0 0 0 35650.7)
(36027.8 0 0 0 36027.8 0 0 0 36027.8)
(36744.4 0 0 0 36744.4 0 0 0 36744.4)
)
;

boundaryField
{
    inlet
    {
        type            zeroGradient;
    }
    outlet
    {
        type            zeroGradient;
    }
    fixedWalls
    {
        type            zeroGradient;
    }
}


// ************************************************************************* //
