/*--------------------------------*- C++ -*----------------------------------*\
| =========                 |                                                 |
| \\      /  F ield         | OpenFOAM: The Open Source CFD Toolbox           |
|  \\    /   O peration     | Version:  2406                                  |
|   \\  /    A nd           | Website:  www.openfoam.com                      |
|    \\/     M anipulation  |                                                 |
\*---------------------------------------------------------------------------*/
FoamFile
{
    version     2.0;
    format      ascii;
    arch        "LSB;label=32;scalar=64";
    class       volScalarField;
    location    "30/fluidRegion";
    object      p;
}
// * * * * * * * * * * * * * * * * * * * * * * * * * * * * * * * * * * * * * //

dimensions      [1 -1 -2 0 0 0 0];

internalField   nonuniform List<scalar> 
105
(
7.40365e+06
7.40348e+06
7.40331e+06
7.40314e+06
7.40297e+06
7.40268e+06
7.40227e+06
7.40186e+06
7.40145e+06
7.40104e+06
7.40063e+06
7.40022e+06
7.39981e+06
7.3994e+06
7.39899e+06
7.39858e+06
7.39815e+06
7.39771e+06
7.39726e+06
7.39679e+06
7.3963e+06
7.39579e+06
7.39526e+06
7.3947e+06
7.39412e+06
7.39352e+06
7.39289e+06
7.39225e+06
7.39158e+06
7.3909e+06
7.39018e+06
7.38945e+06
7.38869e+06
7.38791e+06
7.38711e+06
7.38628e+06
7.38543e+06
7.38455e+06
7.38365e+06
7.38273e+06
7.38178e+06
7.38081e+06
7.37981e+06
7.37879e+06
7.37774e+06
7.37667e+06
7.37557e+06
7.37445e+06
7.37329e+06
7.3721e+06
7.37087e+06
7.36959e+06
7.36827e+06
7.36692e+06
7.36552e+06
7.36407e+06
7.36259e+06
7.36106e+06
7.35948e+06
7.35787e+06
7.3562e+06
7.3545e+06
7.35274e+06
7.35094e+06
7.3491e+06
7.3472e+06
7.34527e+06
7.34328e+06
7.34125e+06
7.33917e+06
7.33704e+06
7.33486e+06
7.33264e+06
7.33037e+06
7.32805e+06
7.32568e+06
7.32326e+06
7.3208e+06
7.31828e+06
7.31572e+06
7.31311e+06
7.31045e+06
7.30774e+06
7.30498e+06
7.30217e+06
7.29931e+06
7.2964e+06
7.29345e+06
7.29044e+06
7.28739e+06
7.28429e+06
7.28113e+06
7.27793e+06
7.27468e+06
7.27138e+06
7.26804e+06
7.26464e+06
7.26119e+06
7.2577e+06
7.25416e+06
7.25057e+06
7.24693e+06
7.24324e+06
7.2395e+06
7.23571e+06
)
;

boundaryField
{
    inlet
    {
        type            calculated;
        value           uniform 7.40374e+06;
    }
    outlet
    {
        type            calculated;
        value           uniform 7.23378e+06;
    }
    fixedWalls
    {
        type            calculated;
        value           nonuniform List<scalar> 
420
(
7.40365e+06
7.40348e+06
7.40331e+06
7.40314e+06
7.40297e+06
7.40268e+06
7.40227e+06
7.40186e+06
7.40145e+06
7.40104e+06
7.40063e+06
7.40022e+06
7.39981e+06
7.3994e+06
7.39899e+06
7.39858e+06
7.39815e+06
7.39771e+06
7.39726e+06
7.39679e+06
7.3963e+06
7.39579e+06
7.39526e+06
7.3947e+06
7.39412e+06
7.39352e+06
7.39289e+06
7.39225e+06
7.39158e+06
7.3909e+06
7.39018e+06
7.38945e+06
7.38869e+06
7.38791e+06
7.38711e+06
7.38628e+06
7.38543e+06
7.38455e+06
7.38365e+06
7.38273e+06
7.38178e+06
7.38081e+06
7.37981e+06
7.37879e+06
7.37774e+06
7.37667e+06
7.37557e+06
7.37445e+06
7.37329e+06
7.3721e+06
7.37087e+06
7.36959e+06
7.36827e+06
7.36692e+06
7.36552e+06
7.36407e+06
7.36259e+06
7.36106e+06
7.35948e+06
7.35787e+06
7.3562e+06
7.3545e+06
7.35274e+06
7.35094e+06
7.3491e+06
7.3472e+06
7.34527e+06
7.34328e+06
7.34125e+06
7.33917e+06
7.33704e+06
7.33486e+06
7.33264e+06
7.33037e+06
7.32805e+06
7.32568e+06
7.32326e+06
7.3208e+06
7.31828e+06
7.31572e+06
7.31311e+06
7.31045e+06
7.30774e+06
7.30498e+06
7.30217e+06
7.29931e+06
7.2964e+06
7.29345e+06
7.29044e+06
7.28739e+06
7.28429e+06
7.28113e+06
7.27793e+06
7.27468e+06
7.27138e+06
7.26804e+06
7.26464e+06
7.26119e+06
7.2577e+06
7.25416e+06
7.25057e+06
7.24693e+06
7.24324e+06
7.2395e+06
7.23571e+06
7.40365e+06
7.40348e+06
7.40331e+06
7.40314e+06
7.40297e+06
7.40268e+06
7.40227e+06
7.40186e+06
7.40145e+06
7.40104e+06
7.40063e+06
7.40022e+06
7.39981e+06
7.3994e+06
7.39899e+06
7.39858e+06
7.39815e+06
7.39771e+06
7.39726e+06
7.39679e+06
7.3963e+06
7.39579e+06
7.39526e+06
7.3947e+06
7.39412e+06
7.39352e+06
7.39289e+06
7.39225e+06
7.39158e+06
7.3909e+06
7.39018e+06
7.38945e+06
7.38869e+06
7.38791e+06
7.38711e+06
7.38628e+06
7.38543e+06
7.38455e+06
7.38365e+06
7.38273e+06
7.38178e+06
7.38081e+06
7.37981e+06
7.37879e+06
7.37774e+06
7.37667e+06
7.37557e+06
7.37445e+06
7.37329e+06
7.3721e+06
7.37087e+06
7.36959e+06
7.36827e+06
7.36692e+06
7.36552e+06
7.36407e+06
7.36259e+06
7.36106e+06
7.35948e+06
7.35787e+06
7.3562e+06
7.3545e+06
7.35274e+06
7.35094e+06
7.3491e+06
7.3472e+06
7.34527e+06
7.34328e+06
7.34125e+06
7.33917e+06
7.33704e+06
7.33486e+06
7.33264e+06
7.33037e+06
7.32805e+06
7.32568e+06
7.32326e+06
7.3208e+06
7.31828e+06
7.31572e+06
7.31311e+06
7.31045e+06
7.30774e+06
7.30498e+06
7.30217e+06
7.29931e+06
7.2964e+06
7.29345e+06
7.29044e+06
7.28739e+06
7.28429e+06
7.28113e+06
7.27793e+06
7.27468e+06
7.27138e+06
7.26804e+06
7.26464e+06
7.26119e+06
7.2577e+06
7.25416e+06
7.25057e+06
7.24693e+06
7.24324e+06
7.2395e+06
7.23571e+06
7.40365e+06
7.40348e+06
7.40331e+06
7.40314e+06
7.40297e+06
7.40268e+06
7.40227e+06
7.40186e+06
7.40145e+06
7.40104e+06
7.40063e+06
7.40022e+06
7.39981e+06
7.3994e+06
7.39899e+06
7.39858e+06
7.39815e+06
7.39771e+06
7.39726e+06
7.39679e+06
7.3963e+06
7.39579e+06
7.39526e+06
7.3947e+06
7.39412e+06
7.39352e+06
7.39289e+06
7.39225e+06
7.39158e+06
7.3909e+06
7.39018e+06
7.38945e+06
7.38869e+06
7.38791e+06
7.38711e+06
7.38628e+06
7.38543e+06
7.38455e+06
7.38365e+06
7.38273e+06
7.38178e+06
7.38081e+06
7.37981e+06
7.37879e+06
7.37774e+06
7.37667e+06
7.37557e+06
7.37445e+06
7.37329e+06
7.3721e+06
7.37087e+06
7.36959e+06
7.36827e+06
7.36692e+06
7.36552e+06
7.36407e+06
7.36259e+06
7.36106e+06
7.35948e+06
7.35787e+06
7.3562e+06
7.3545e+06
7.35274e+06
7.35094e+06
7.3491e+06
7.3472e+06
7.34527e+06
7.34328e+06
7.34125e+06
7.33917e+06
7.33704e+06
7.33486e+06
7.33264e+06
7.33037e+06
7.32805e+06
7.32568e+06
7.32326e+06
7.3208e+06
7.31828e+06
7.31572e+06
7.31311e+06
7.31045e+06
7.30774e+06
7.30498e+06
7.30217e+06
7.29931e+06
7.2964e+06
7.29345e+06
7.29044e+06
7.28739e+06
7.28429e+06
7.28113e+06
7.27793e+06
7.27468e+06
7.27138e+06
7.26804e+06
7.26464e+06
7.26119e+06
7.2577e+06
7.25416e+06
7.25057e+06
7.24693e+06
7.24324e+06
7.2395e+06
7.23571e+06
7.40365e+06
7.40348e+06
7.40331e+06
7.40314e+06
7.40297e+06
7.40268e+06
7.40227e+06
7.40186e+06
7.40145e+06
7.40104e+06
7.40063e+06
7.40022e+06
7.39981e+06
7.3994e+06
7.39899e+06
7.39858e+06
7.39815e+06
7.39771e+06
7.39726e+06
7.39679e+06
7.3963e+06
7.39579e+06
7.39526e+06
7.3947e+06
7.39412e+06
7.39352e+06
7.39289e+06
7.39225e+06
7.39158e+06
7.3909e+06
7.39018e+06
7.38945e+06
7.38869e+06
7.38791e+06
7.38711e+06
7.38628e+06
7.38543e+06
7.38455e+06
7.38365e+06
7.38273e+06
7.38178e+06
7.38081e+06
7.37981e+06
7.37879e+06
7.37774e+06
7.37667e+06
7.37557e+06
7.37445e+06
7.37329e+06
7.3721e+06
7.37087e+06
7.36959e+06
7.36827e+06
7.36692e+06
7.36552e+06
7.36407e+06
7.36259e+06
7.36106e+06
7.35948e+06
7.35787e+06
7.3562e+06
7.3545e+06
7.35274e+06
7.35094e+06
7.3491e+06
7.3472e+06
7.34527e+06
7.34328e+06
7.34125e+06
7.33917e+06
7.33704e+06
7.33486e+06
7.33264e+06
7.33037e+06
7.32805e+06
7.32568e+06
7.32326e+06
7.3208e+06
7.31828e+06
7.31572e+06
7.31311e+06
7.31045e+06
7.30774e+06
7.30498e+06
7.30217e+06
7.29931e+06
7.2964e+06
7.29345e+06
7.29044e+06
7.28739e+06
7.28429e+06
7.28113e+06
7.27793e+06
7.27468e+06
7.27138e+06
7.26804e+06
7.26464e+06
7.26119e+06
7.2577e+06
7.25416e+06
7.25057e+06
7.24693e+06
7.24324e+06
7.2395e+06
7.23571e+06
)
;
    }
}


// ************************************************************************* //
