/*--------------------------------*- C++ -*----------------------------------*\
| =========                 |                                                 |
| \\      /  F ield         | OpenFOAM: The Open Source CFD Toolbox           |
|  \\    /   O peration     | Version:  2406                                  |
|   \\  /    A nd           | Website:  www.openfoam.com                      |
|    \\/     M anipulation  |                                                 |
\*---------------------------------------------------------------------------*/
FoamFile
{
    version     2.0;
    format      ascii;
    arch        "LSB;label=32;scalar=64";
    class       volScalarField;
    location    "30/fluidRegion";
    object      p_rgh;
}
// * * * * * * * * * * * * * * * * * * * * * * * * * * * * * * * * * * * * * //

dimensions      [1 -1 -2 0 0 0 0];

internalField   nonuniform List<scalar> 
105
(
7.40373e+06
7.40371e+06
7.40369e+06
7.40367e+06
7.40364e+06
7.40361e+06
7.40355e+06
7.4035e+06
7.40344e+06
7.40339e+06
7.40333e+06
7.40327e+06
7.40321e+06
7.40314e+06
7.40306e+06
7.40294e+06
7.40279e+06
7.4026e+06
7.40237e+06
7.40208e+06
7.40175e+06
7.40136e+06
7.40094e+06
7.40048e+06
7.40001e+06
7.39951e+06
7.39899e+06
7.39844e+06
7.39787e+06
7.39728e+06
7.39667e+06
7.39603e+06
7.39537e+06
7.39468e+06
7.39397e+06
7.39324e+06
7.39248e+06
7.39169e+06
7.39089e+06
7.39005e+06
7.38919e+06
7.38831e+06
7.3874e+06
7.38646e+06
7.3855e+06
7.38452e+06
7.38351e+06
7.38248e+06
7.38143e+06
7.38034e+06
7.37921e+06
7.37804e+06
7.37683e+06
7.37558e+06
7.37429e+06
7.37296e+06
7.37158e+06
7.37016e+06
7.36869e+06
7.36718e+06
7.36563e+06
7.36403e+06
7.36238e+06
7.36069e+06
7.35896e+06
7.35717e+06
7.35534e+06
7.35347e+06
7.35154e+06
7.34957e+06
7.34755e+06
7.34549e+06
7.34337e+06
7.34121e+06
7.339e+06
7.33674e+06
7.33443e+06
7.33207e+06
7.32967e+06
7.32722e+06
7.32471e+06
7.32216e+06
7.31956e+06
7.31691e+06
7.31421e+06
7.31147e+06
7.30867e+06
7.30582e+06
7.30293e+06
7.29998e+06
7.29699e+06
7.29395e+06
7.29086e+06
7.28772e+06
7.28453e+06
7.28129e+06
7.278e+06
7.27467e+06
7.27128e+06
7.26785e+06
7.26437e+06
7.26084e+06
7.25725e+06
7.25364e+06
7.24993e+06
)
;

boundaryField
{
    inlet
    {
        type            fixedFluxPressure;
        gradient        uniform 1068.2;
        value           uniform 7.40374e+06;
    }
    outlet
    {
        type            fixedValue;
        value           uniform 7.24807e+06;
    }
    fixedWalls
    {
        type            fixedFluxPressure;
        gradient        nonuniform List<scalar> 
420
(
0
0
-4.08755e-17
-4.08755e-17
2.40556e-17
2.40327e-17
0
1.37838e-17
-2.54315e-20
-2.03452e-19
2.69573e-17
-1.36313e-17
-2.70082e-17
0
0
0
0
0
0
0
0
0
0
0
0
1.1236e-16
-1.08315e-17
-9.90777e-17
0
0
0
0
0
0
0
2.14133e-16
-7.43569e-18
-2.04638e-16
0
0
2.20537e-16
-1.34923e-17
-2.13461e-16
0
0
0
0
0
0
0
0
0
0
0
0
0
0
0
0
-2.18714e-16
5.70377e-18
2.16632e-16
0
0
0
0
0
0
0
-4.40721e-16
1.09568e-17
4.37799e-16
0
0
0
0
0
0
0
0
-4.3749e-16
1.06204e-17
4.35409e-16
0
0
4.32496e-16
-1.05025e-17
-4.30694e-16
0
0
0
0
0
0
0
0
0
0
0
0
0
0
0
0
0
0
0
4.08755e-17
4.08755e-17
-2.40556e-17
-2.40327e-17
0
-1.37838e-17
2.54315e-20
2.03452e-19
-2.69573e-17
1.36313e-17
2.70082e-17
0
0
0
0
0
0
0
0
0
0
0
0
-1.1236e-16
1.08315e-17
9.90777e-17
0
0
0
0
0
0
0
-2.14133e-16
7.43569e-18
2.04638e-16
0
0
-2.20537e-16
1.34923e-17
2.13461e-16
0
0
0
0
0
0
0
0
0
0
0
0
0
0
0
0
2.18714e-16
-5.70377e-18
-2.16632e-16
0
0
0
0
0
0
0
4.40721e-16
-1.09568e-17
-4.37799e-16
0
0
0
0
0
0
0
0
4.3749e-16
-1.06204e-17
-4.35409e-16
0
0
-4.32496e-16
1.05025e-17
4.30694e-16
0
0
0
0
0
0
0
0
0
0
0
0
0
0
0
0
0
0
0
-4.08755e-17
-4.08755e-17
2.40556e-17
2.40327e-17
0
1.37838e-17
-2.54315e-20
-2.03452e-19
2.69573e-17
-1.36313e-17
-2.70082e-17
0
0
0
0
0
0
0
0
0
0
0
0
1.1236e-16
-1.08315e-17
-9.90777e-17
0
0
0
0
0
0
0
2.14133e-16
-7.43569e-18
-2.04638e-16
0
0
2.20537e-16
-1.34923e-17
-2.13461e-16
0
0
0
0
0
0
0
0
0
0
0
0
0
0
0
0
-2.18714e-16
5.70377e-18
2.16632e-16
0
0
0
0
0
0
0
-4.40721e-16
1.09568e-17
4.37799e-16
0
0
0
0
0
0
0
0
-4.3749e-16
1.06204e-17
4.35409e-16
0
0
4.32496e-16
-1.05025e-17
-4.30694e-16
0
0
0
0
0
0
0
0
0
0
0
0
0
0
0
0
0
0
0
4.08755e-17
4.08755e-17
-2.40556e-17
-2.40327e-17
0
-1.37838e-17
2.54315e-20
2.03452e-19
-2.69573e-17
1.36313e-17
2.70082e-17
0
0
0
0
0
0
0
0
0
0
0
0
-1.1236e-16
1.08315e-17
9.90777e-17
0
0
0
0
0
0
0
-2.14133e-16
7.43569e-18
2.04638e-16
0
0
-2.20537e-16
1.34923e-17
2.13461e-16
0
0
0
0
0
0
0
0
0
0
0
0
0
0
0
0
2.18714e-16
-5.70377e-18
-2.16632e-16
0
0
0
0
0
0
0
4.40721e-16
-1.09568e-17
-4.37799e-16
0
0
0
0
0
0
0
0
4.3749e-16
-1.06204e-17
-4.35409e-16
0
0
-4.32496e-16
1.05025e-17
4.30694e-16
0
0
0
0
0
0
0
0
0
0
0
0
0
0
0
0
0
)
;
        value           nonuniform List<scalar> 
420
(
7.40373e+06
7.40371e+06
7.40369e+06
7.40367e+06
7.40364e+06
7.40361e+06
7.40355e+06
7.4035e+06
7.40344e+06
7.40339e+06
7.40333e+06
7.40327e+06
7.40321e+06
7.40314e+06
7.40306e+06
7.40294e+06
7.40279e+06
7.4026e+06
7.40237e+06
7.40208e+06
7.40175e+06
7.40136e+06
7.40094e+06
7.40048e+06
7.40001e+06
7.39951e+06
7.39899e+06
7.39844e+06
7.39787e+06
7.39728e+06
7.39667e+06
7.39603e+06
7.39537e+06
7.39468e+06
7.39397e+06
7.39324e+06
7.39248e+06
7.39169e+06
7.39089e+06
7.39005e+06
7.38919e+06
7.38831e+06
7.3874e+06
7.38646e+06
7.3855e+06
7.38452e+06
7.38351e+06
7.38248e+06
7.38143e+06
7.38034e+06
7.37921e+06
7.37804e+06
7.37683e+06
7.37558e+06
7.37429e+06
7.37296e+06
7.37158e+06
7.37016e+06
7.36869e+06
7.36718e+06
7.36563e+06
7.36403e+06
7.36238e+06
7.36069e+06
7.35896e+06
7.35717e+06
7.35534e+06
7.35347e+06
7.35154e+06
7.34957e+06
7.34755e+06
7.34549e+06
7.34337e+06
7.34121e+06
7.339e+06
7.33674e+06
7.33443e+06
7.33207e+06
7.32967e+06
7.32722e+06
7.32471e+06
7.32216e+06
7.31956e+06
7.31691e+06
7.31421e+06
7.31147e+06
7.30867e+06
7.30582e+06
7.30293e+06
7.29998e+06
7.29699e+06
7.29395e+06
7.29086e+06
7.28772e+06
7.28453e+06
7.28129e+06
7.278e+06
7.27467e+06
7.27128e+06
7.26785e+06
7.26437e+06
7.26084e+06
7.25725e+06
7.25364e+06
7.24993e+06
7.40373e+06
7.40371e+06
7.40369e+06
7.40367e+06
7.40364e+06
7.40361e+06
7.40355e+06
7.4035e+06
7.40344e+06
7.40339e+06
7.40333e+06
7.40327e+06
7.40321e+06
7.40314e+06
7.40306e+06
7.40294e+06
7.40279e+06
7.4026e+06
7.40237e+06
7.40208e+06
7.40175e+06
7.40136e+06
7.40094e+06
7.40048e+06
7.40001e+06
7.39951e+06
7.39899e+06
7.39844e+06
7.39787e+06
7.39728e+06
7.39667e+06
7.39603e+06
7.39537e+06
7.39468e+06
7.39397e+06
7.39324e+06
7.39248e+06
7.39169e+06
7.39089e+06
7.39005e+06
7.38919e+06
7.38831e+06
7.3874e+06
7.38646e+06
7.3855e+06
7.38452e+06
7.38351e+06
7.38248e+06
7.38143e+06
7.38034e+06
7.37921e+06
7.37804e+06
7.37683e+06
7.37558e+06
7.37429e+06
7.37296e+06
7.37158e+06
7.37016e+06
7.36869e+06
7.36718e+06
7.36563e+06
7.36403e+06
7.36238e+06
7.36069e+06
7.35896e+06
7.35717e+06
7.35534e+06
7.35347e+06
7.35154e+06
7.34957e+06
7.34755e+06
7.34549e+06
7.34337e+06
7.34121e+06
7.339e+06
7.33674e+06
7.33443e+06
7.33207e+06
7.32967e+06
7.32722e+06
7.32471e+06
7.32216e+06
7.31956e+06
7.31691e+06
7.31421e+06
7.31147e+06
7.30867e+06
7.30582e+06
7.30293e+06
7.29998e+06
7.29699e+06
7.29395e+06
7.29086e+06
7.28772e+06
7.28453e+06
7.28129e+06
7.278e+06
7.27467e+06
7.27128e+06
7.26785e+06
7.26437e+06
7.26084e+06
7.25725e+06
7.25364e+06
7.24993e+06
7.40373e+06
7.40371e+06
7.40369e+06
7.40367e+06
7.40364e+06
7.40361e+06
7.40355e+06
7.4035e+06
7.40344e+06
7.40339e+06
7.40333e+06
7.40327e+06
7.40321e+06
7.40314e+06
7.40306e+06
7.40294e+06
7.40279e+06
7.4026e+06
7.40237e+06
7.40208e+06
7.40175e+06
7.40136e+06
7.40094e+06
7.40048e+06
7.40001e+06
7.39951e+06
7.39899e+06
7.39844e+06
7.39787e+06
7.39728e+06
7.39667e+06
7.39603e+06
7.39537e+06
7.39468e+06
7.39397e+06
7.39324e+06
7.39248e+06
7.39169e+06
7.39089e+06
7.39005e+06
7.38919e+06
7.38831e+06
7.3874e+06
7.38646e+06
7.3855e+06
7.38452e+06
7.38351e+06
7.38248e+06
7.38143e+06
7.38034e+06
7.37921e+06
7.37804e+06
7.37683e+06
7.37558e+06
7.37429e+06
7.37296e+06
7.37158e+06
7.37016e+06
7.36869e+06
7.36718e+06
7.36563e+06
7.36403e+06
7.36238e+06
7.36069e+06
7.35896e+06
7.35717e+06
7.35534e+06
7.35347e+06
7.35154e+06
7.34957e+06
7.34755e+06
7.34549e+06
7.34337e+06
7.34121e+06
7.339e+06
7.33674e+06
7.33443e+06
7.33207e+06
7.32967e+06
7.32722e+06
7.32471e+06
7.32216e+06
7.31956e+06
7.31691e+06
7.31421e+06
7.31147e+06
7.30867e+06
7.30582e+06
7.30293e+06
7.29998e+06
7.29699e+06
7.29395e+06
7.29086e+06
7.28772e+06
7.28453e+06
7.28129e+06
7.278e+06
7.27467e+06
7.27128e+06
7.26785e+06
7.26437e+06
7.26084e+06
7.25725e+06
7.25364e+06
7.24993e+06
7.40373e+06
7.40371e+06
7.40369e+06
7.40367e+06
7.40364e+06
7.40361e+06
7.40355e+06
7.4035e+06
7.40344e+06
7.40339e+06
7.40333e+06
7.40327e+06
7.40321e+06
7.40314e+06
7.40306e+06
7.40294e+06
7.40279e+06
7.4026e+06
7.40237e+06
7.40208e+06
7.40175e+06
7.40136e+06
7.40094e+06
7.40048e+06
7.40001e+06
7.39951e+06
7.39899e+06
7.39844e+06
7.39787e+06
7.39728e+06
7.39667e+06
7.39603e+06
7.39537e+06
7.39468e+06
7.39397e+06
7.39324e+06
7.39248e+06
7.39169e+06
7.39089e+06
7.39005e+06
7.38919e+06
7.38831e+06
7.3874e+06
7.38646e+06
7.3855e+06
7.38452e+06
7.38351e+06
7.38248e+06
7.38143e+06
7.38034e+06
7.37921e+06
7.37804e+06
7.37683e+06
7.37558e+06
7.37429e+06
7.37296e+06
7.37158e+06
7.37016e+06
7.36869e+06
7.36718e+06
7.36563e+06
7.36403e+06
7.36238e+06
7.36069e+06
7.35896e+06
7.35717e+06
7.35534e+06
7.35347e+06
7.35154e+06
7.34957e+06
7.34755e+06
7.34549e+06
7.34337e+06
7.34121e+06
7.339e+06
7.33674e+06
7.33443e+06
7.33207e+06
7.32967e+06
7.32722e+06
7.32471e+06
7.32216e+06
7.31956e+06
7.31691e+06
7.31421e+06
7.31147e+06
7.30867e+06
7.30582e+06
7.30293e+06
7.29998e+06
7.29699e+06
7.29395e+06
7.29086e+06
7.28772e+06
7.28453e+06
7.28129e+06
7.278e+06
7.27467e+06
7.27128e+06
7.26785e+06
7.26437e+06
7.26084e+06
7.25725e+06
7.25364e+06
7.24993e+06
)
;
    }
}


// ************************************************************************* //
