/*--------------------------------*- C++ -*----------------------------------*\
| =========                 |                                                 |
| \\      /  F ield         | OpenFOAM: The Open Source CFD Toolbox           |
|  \\    /   O peration     | Version:  2406                                  |
|   \\  /    A nd           | Website:  www.openfoam.com                      |
|    \\/     M anipulation  |                                                 |
\*---------------------------------------------------------------------------*/
FoamFile
{
    version     2.0;
    format      ascii;
    arch        "LSB;label=32;scalar=64";
    class       volScalarField;
    location    "30/fluidRegion";
    object      alphaRhoMagU.vapour;
}
// * * * * * * * * * * * * * * * * * * * * * * * * * * * * * * * * * * * * * //

dimensions      [1 -2 -1 0 0 0 0];

internalField   nonuniform List<scalar> 
70
(
0
0
0
0
0
0
0
0
0
0
0
0
0
0
0
0
0
0
0.0752405
0.287587
0.604651
1.05212
1.63656
2.36478
3.234
4.21994
5.29983
6.46564
7.70558
8.99803
10.2171
11.3935
12.5581
13.7224
14.8905
16.0645
17.2455
18.434
19.6301
20.8339
22.0453
23.2639
24.4897
25.7223
26.9615
28.2069
29.4584
30.7155
31.9781
33.2459
34.5186
35.7959
37.0777
38.3638
39.6538
40.9476
42.2475
43.5557
44.8722
46.1964
47.5276
48.865
50.2081
51.5563
52.9091
54.2659
55.6262
56.9907
58.3516
59.7561
)
;

boundaryField
{
    inlet
    {
        type            calculated;
        value           uniform 0;
    }
    outlet
    {
        type            calculated;
        value           uniform 59.751;
    }
    fixedWalls
    {
        type            calculated;
        value           nonuniform List<scalar> 
280
(
0
0
0
0
0
0
0
0
0
0
0
0
0
0
0
0
0
0
0.0752405
0.287587
0.604651
1.05212
1.63656
2.36478
3.234
4.21994
5.29983
6.46564
7.70558
8.99803
10.2171
11.3935
12.5581
13.7224
14.8905
16.0645
17.2455
18.434
19.6301
20.8339
22.0453
23.2639
24.4897
25.7223
26.9615
28.2069
29.4584
30.7155
31.9781
33.2459
34.5186
35.7959
37.0777
38.3638
39.6538
40.9476
42.2475
43.5557
44.8722
46.1964
47.5276
48.865
50.2081
51.5563
52.9091
54.2659
55.6262
56.9907
58.3516
59.7561
0
0
0
0
0
0
0
0
0
0
0
0
0
0
0
0
0
0
0.0752405
0.287587
0.604651
1.05212
1.63656
2.36478
3.234
4.21994
5.29983
6.46564
7.70558
8.99803
10.2171
11.3935
12.5581
13.7224
14.8905
16.0645
17.2455
18.434
19.6301
20.8339
22.0453
23.2639
24.4897
25.7223
26.9615
28.2069
29.4584
30.7155
31.9781
33.2459
34.5186
35.7959
37.0777
38.3638
39.6538
40.9476
42.2475
43.5557
44.8722
46.1964
47.5276
48.865
50.2081
51.5563
52.9091
54.2659
55.6262
56.9907
58.3516
59.7561
0
0
0
0
0
0
0
0
0
0
0
0
0
0
0
0
0
0
0.0752405
0.287587
0.604651
1.05212
1.63656
2.36478
3.234
4.21994
5.29983
6.46564
7.70558
8.99803
10.2171
11.3935
12.5581
13.7224
14.8905
16.0645
17.2455
18.434
19.6301
20.8339
22.0453
23.2639
24.4897
25.7223
26.9615
28.2069
29.4584
30.7155
31.9781
33.2459
34.5186
35.7959
37.0777
38.3638
39.6538
40.9476
42.2475
43.5557
44.8722
46.1964
47.5276
48.865
50.2081
51.5563
52.9091
54.2659
55.6262
56.9907
58.3516
59.7561
0
0
0
0
0
0
0
0
0
0
0
0
0
0
0
0
0
0
0.0752405
0.287587
0.604651
1.05212
1.63656
2.36478
3.234
4.21994
5.29983
6.46564
7.70558
8.99803
10.2171
11.3935
12.5581
13.7224
14.8905
16.0645
17.2455
18.434
19.6301
20.8339
22.0453
23.2639
24.4897
25.7223
26.9615
28.2069
29.4584
30.7155
31.9781
33.2459
34.5186
35.7959
37.0777
38.3638
39.6538
40.9476
42.2475
43.5557
44.8722
46.1964
47.5276
48.865
50.2081
51.5563
52.9091
54.2659
55.6262
56.9907
58.3516
59.7561
)
;
    }
}


// ************************************************************************* //
