/*--------------------------------*- C++ -*----------------------------------*\
| =========                 |                                                 |
| \\      /  F ield         | OpenFOAM: The Open Source CFD Toolbox           |
|  \\    /   O peration     | Version:  2406                                  |
|   \\  /    A nd           | Website:  www.openfoam.com                      |
|    \\/     M anipulation  |                                                 |
\*---------------------------------------------------------------------------*/
FoamFile
{
    version     2.0;
    format      ascii;
    arch        "LSB;label=32;scalar=64";
    class       volScalarField;
    location    "30/fluidRegion";
    object      dgdt.vapour;
}
// * * * * * * * * * * * * * * * * * * * * * * * * * * * * * * * * * * * * * //

dimensions      [0 0 -1 0 0 0 0];

internalField   nonuniform List<scalar> 
70
(
-2.71333e-206
-2.34373e-206
-5.00224e-206
-2.37347e-206
-2.4589e-206
-2.6847e-206
-1.4962e-205
-4.50406e-206
-2.47722e-206
-2.76774e-206
-1.91852e-206
-3.94167e-206
-1.94124e-206
-3.18691e-206
-1.82572e-206
-2.07646e-206
-3.32293e-206
-1.86037e-206
0.0630565
0.134026
0.212975
0.29916
0.392811
0.49067
0.587275
0.664846
0.726988
0.785567
0.834855
0.871918
0.801716
0.781821
0.776608
0.776917
0.779731
0.783783
0.78846
0.793429
0.7985
0.80356
0.808538
0.813392
0.818095
0.822632
0.826995
0.831183
0.835195
0.839035
0.842708
0.846218
0.849572
0.852777
0.855839
0.858764
0.86156
0.864232
0.868974
0.875164
0.880838
0.886028
0.890764
0.895075
0.89899
0.902536
0.905739
0.908626
0.91122
0.913548
0.915619
0.920928
)
;

boundaryField
{
    inlet
    {
        type            calculated;
        value           uniform -2.71333e-206;
    }
    outlet
    {
        type            calculated;
        value           uniform 0.920928;
    }
    fixedWalls
    {
        type            calculated;
        value           nonuniform List<scalar> 
280
(
-2.71333e-206
-2.34373e-206
-5.00224e-206
-2.37347e-206
-2.4589e-206
-2.6847e-206
-1.4962e-205
-4.50406e-206
-2.47722e-206
-2.76774e-206
-1.91852e-206
-3.94167e-206
-1.94124e-206
-3.18691e-206
-1.82572e-206
-2.07646e-206
-3.32293e-206
-1.86037e-206
0.0630565
0.134026
0.212975
0.29916
0.392811
0.49067
0.587275
0.664846
0.726988
0.785567
0.834855
0.871918
0.801716
0.781821
0.776608
0.776917
0.779731
0.783783
0.78846
0.793429
0.7985
0.80356
0.808538
0.813392
0.818095
0.822632
0.826995
0.831183
0.835195
0.839035
0.842708
0.846218
0.849572
0.852777
0.855839
0.858764
0.86156
0.864232
0.868974
0.875164
0.880838
0.886028
0.890764
0.895075
0.89899
0.902536
0.905739
0.908626
0.91122
0.913548
0.915619
0.920928
-2.71333e-206
-2.34373e-206
-5.00224e-206
-2.37347e-206
-2.4589e-206
-2.6847e-206
-1.4962e-205
-4.50406e-206
-2.47722e-206
-2.76774e-206
-1.91852e-206
-3.94167e-206
-1.94124e-206
-3.18691e-206
-1.82572e-206
-2.07646e-206
-3.32293e-206
-1.86037e-206
0.0630565
0.134026
0.212975
0.29916
0.392811
0.49067
0.587275
0.664846
0.726988
0.785567
0.834855
0.871918
0.801716
0.781821
0.776608
0.776917
0.779731
0.783783
0.78846
0.793429
0.7985
0.80356
0.808538
0.813392
0.818095
0.822632
0.826995
0.831183
0.835195
0.839035
0.842708
0.846218
0.849572
0.852777
0.855839
0.858764
0.86156
0.864232
0.868974
0.875164
0.880838
0.886028
0.890764
0.895075
0.89899
0.902536
0.905739
0.908626
0.91122
0.913548
0.915619
0.920928
-2.71333e-206
-2.34373e-206
-5.00224e-206
-2.37347e-206
-2.4589e-206
-2.6847e-206
-1.4962e-205
-4.50406e-206
-2.47722e-206
-2.76774e-206
-1.91852e-206
-3.94167e-206
-1.94124e-206
-3.18691e-206
-1.82572e-206
-2.07646e-206
-3.32293e-206
-1.86037e-206
0.0630565
0.134026
0.212975
0.29916
0.392811
0.49067
0.587275
0.664846
0.726988
0.785567
0.834855
0.871918
0.801716
0.781821
0.776608
0.776917
0.779731
0.783783
0.78846
0.793429
0.7985
0.80356
0.808538
0.813392
0.818095
0.822632
0.826995
0.831183
0.835195
0.839035
0.842708
0.846218
0.849572
0.852777
0.855839
0.858764
0.86156
0.864232
0.868974
0.875164
0.880838
0.886028
0.890764
0.895075
0.89899
0.902536
0.905739
0.908626
0.91122
0.913548
0.915619
0.920928
-2.71333e-206
-2.34373e-206
-5.00224e-206
-2.37347e-206
-2.4589e-206
-2.6847e-206
-1.4962e-205
-4.50406e-206
-2.47722e-206
-2.76774e-206
-1.91852e-206
-3.94167e-206
-1.94124e-206
-3.18691e-206
-1.82572e-206
-2.07646e-206
-3.32293e-206
-1.86037e-206
0.0630565
0.134026
0.212975
0.29916
0.392811
0.49067
0.587275
0.664846
0.726988
0.785567
0.834855
0.871918
0.801716
0.781821
0.776608
0.776917
0.779731
0.783783
0.78846
0.793429
0.7985
0.80356
0.808538
0.813392
0.818095
0.822632
0.826995
0.831183
0.835195
0.839035
0.842708
0.846218
0.849572
0.852777
0.855839
0.858764
0.86156
0.864232
0.868974
0.875164
0.880838
0.886028
0.890764
0.895075
0.89899
0.902536
0.905739
0.908626
0.91122
0.913548
0.915619
0.920928
)
;
    }
}


// ************************************************************************* //
