/*--------------------------------*- C++ -*----------------------------------*\
| =========                 |                                                 |
| \\      /  F ield         | OpenFOAM: The Open Source CFD Toolbox           |
|  \\    /   O peration     | Version:  2406                                  |
|   \\  /    A nd           | Website:  www.openfoam.com                      |
|    \\/     M anipulation  |                                                 |
\*---------------------------------------------------------------------------*/
FoamFile
{
    version     2.0;
    format      ascii;
    arch        "LSB;label=32;scalar=64";
    class       volTensorField;
    location    "30/fluidRegion";
    object      Kd.liquid.structure;
}
// * * * * * * * * * * * * * * * * * * * * * * * * * * * * * * * * * * * * * //

dimensions      [1 -3 -1 0 0 0 0];

internalField   nonuniform List<tensor> 
70
(
(417.956 0 0 0 417.956 0 0 0 417.956)
(417.504 0 0 0 417.504 0 0 0 417.504)
(417.058 0 0 0 417.058 0 0 0 417.058)
(416.617 0 0 0 416.617 0 0 0 416.617)
(416.182 0 0 0 416.182 0 0 0 416.182)
(415.751 0 0 0 415.751 0 0 0 415.751)
(415.325 0 0 0 415.325 0 0 0 415.325)
(414.904 0 0 0 414.904 0 0 0 414.904)
(414.488 0 0 0 414.488 0 0 0 414.488)
(414.076 0 0 0 414.076 0 0 0 414.076)
(413.668 0 0 0 413.668 0 0 0 413.668)
(413.265 0 0 0 413.265 0 0 0 413.265)
(412.865 0 0 0 412.865 0 0 0 412.865)
(412.47 0 0 0 412.47 0 0 0 412.47)
(412.078 0 0 0 412.078 0 0 0 412.078)
(411.69 0 0 0 411.69 0 0 0 411.69)
(411.306 0 0 0 411.306 0 0 0 411.306)
(410.925 0 0 0 410.925 0 0 0 410.925)
(425.596 0 0 0 425.596 0 0 0 425.596)
(461.292 0 0 0 461.292 0 0 0 461.292)
(508.938 0 0 0 508.938 0 0 0 508.938)
(570.893 0 0 0 570.893 0 0 0 570.893)
(646.02 0 0 0 646.02 0 0 0 646.02)
(733.286 0 0 0 733.286 0 0 0 733.286)
(830.615 0 0 0 830.615 0 0 0 830.615)
(934.018 0 0 0 934.018 0 0 0 934.018)
(1040.29 0 0 0 1040.29 0 0 0 1040.29)
(1148.18 0 0 0 1148.18 0 0 0 1148.18)
(1256.42 0 0 0 1256.42 0 0 0 1256.42)
(1363.37 0 0 0 1363.37 0 0 0 1363.37)
(1459.68 0 0 0 1459.68 0 0 0 1459.68)
(1548.12 0 0 0 1548.12 0 0 0 1548.12)
(1632.1 0 0 0 1632.1 0 0 0 1632.1)
(1712.91 0 0 0 1712.91 0 0 0 1712.91)
(1791.18 0 0 0 1791.18 0 0 0 1791.18)
(1867.29 0 0 0 1867.29 0 0 0 1867.29)
(1941.5 0 0 0 1941.5 0 0 0 1941.5)
(2014.03 0 0 0 2014.03 0 0 0 2014.03)
(2085.01 0 0 0 2085.01 0 0 0 2085.01)
(2154.6 0 0 0 2154.6 0 0 0 2154.6)
(2222.88 0 0 0 2222.88 0 0 0 2222.88)
(2289.97 0 0 0 2289.97 0 0 0 2289.97)
(2355.93 0 0 0 2355.93 0 0 0 2355.93)
(2420.85 0 0 0 2420.85 0 0 0 2420.85)
(2484.78 0 0 0 2484.78 0 0 0 2484.78)
(2547.78 0 0 0 2547.78 0 0 0 2547.78)
(2609.91 0 0 0 2609.91 0 0 0 2609.91)
(2671.21 0 0 0 2671.21 0 0 0 2671.21)
(2731.73 0 0 0 2731.73 0 0 0 2731.73)
(2791.51 0 0 0 2791.51 0 0 0 2791.51)
(2850.59 0 0 0 2850.59 0 0 0 2850.59)
(2908.99 0 0 0 2908.99 0 0 0 2908.99)
(2966.76 0 0 0 2966.76 0 0 0 2966.76)
(3023.92 0 0 0 3023.92 0 0 0 3023.92)
(3080.49 0 0 0 3080.49 0 0 0 3080.49)
(3136.51 0 0 0 3136.51 0 0 0 3136.51)
(3192.09 0 0 0 3192.09 0 0 0 3192.09)
(3247.35 0 0 0 3247.35 0 0 0 3247.35)
(3302.35 0 0 0 3302.35 0 0 0 3302.35)
(3357.08 0 0 0 3357.08 0 0 0 3357.08)
(3411.52 0 0 0 3411.52 0 0 0 3411.52)
(3465.68 0 0 0 3465.68 0 0 0 3465.68)
(3519.54 0 0 0 3519.54 0 0 0 3519.54)
(3573.1 0 0 0 3573.1 0 0 0 3573.1)
(3626.36 0 0 0 3626.36 0 0 0 3626.36)
(3679.31 0 0 0 3679.31 0 0 0 3679.31)
(3731.97 0 0 0 3731.97 0 0 0 3731.97)
(3784.28 0 0 0 3784.28 0 0 0 3784.28)
(3836.53 0 0 0 3836.53 0 0 0 3836.53)
(3887.09 0 0 0 3887.09 0 0 0 3887.09)
)
;

boundaryField
{
    inlet
    {
        type            zeroGradient;
    }
    outlet
    {
        type            zeroGradient;
    }
    fixedWalls
    {
        type            zeroGradient;
    }
}


// ************************************************************************* //
