/*--------------------------------*- C++ -*----------------------------------*\
| =========                 |                                                 |
| \\      /  F ield         | OpenFOAM: The Open Source CFD Toolbox           |
|  \\    /   O peration     | Version:  2406                                  |
|   \\  /    A nd           | Website:  www.openfoam.com                      |
|    \\/     M anipulation  |                                                 |
\*---------------------------------------------------------------------------*/
FoamFile
{
    version     2.0;
    format      ascii;
    arch        "LSB;label=32;scalar=64";
    class       volTensorField;
    location    "30/fluidRegion";
    object      KdTotU;
}
// * * * * * * * * * * * * * * * * * * * * * * * * * * * * * * * * * * * * * //

dimensions      [1 -2 -2 0 0 0 0];

internalField   nonuniform List<tensor> 
70
(
(538.956 0 0 0 538.956 0 0 0 538.956)
(538.748 0 0 0 538.748 0 0 0 538.748)
(538.565 0 0 0 538.565 0 0 0 538.565)
(538.409 0 0 0 538.409 0 0 0 538.409)
(538.279 0 0 0 538.279 0 0 0 538.279)
(538.173 0 0 0 538.173 0 0 0 538.173)
(538.093 0 0 0 538.093 0 0 0 538.093)
(538.038 0 0 0 538.038 0 0 0 538.038)
(538.007 0 0 0 538.007 0 0 0 538.007)
(538 0 0 0 538 0 0 0 538)
(538.017 0 0 0 538.017 0 0 0 538.017)
(538.057 0 0 0 538.057 0 0 0 538.057)
(538.121 0 0 0 538.121 0 0 0 538.121)
(538.208 0 0 0 538.208 0 0 0 538.208)
(538.318 0 0 0 538.318 0 0 0 538.318)
(538.45 0 0 0 538.45 0 0 0 538.45)
(538.604 0 0 0 538.604 0 0 0 538.604)
(538.78 0 0 0 538.78 0 0 0 538.78)
(559.488 0 0 0 559.488 0 0 0 559.488)
(609.572 0 0 0 609.572 0 0 0 609.572)
(677.683 0 0 0 677.683 0 0 0 677.683)
(767.939 0 0 0 767.939 0 0 0 767.939)
(880.13 0 0 0 880.13 0 0 0 880.13)
(1014.31 0 0 0 1014.31 0 0 0 1014.31)
(1169.06 0 0 0 1169.06 0 0 0 1169.06)
(1339.72 0 0 0 1339.72 0 0 0 1339.72)
(1522.03 0 0 0 1522.03 0 0 0 1522.03)
(1714.37 0 0 0 1714.37 0 0 0 1714.37)
(1914.89 0 0 0 1914.89 0 0 0 1914.89)
(2120.47 0 0 0 2120.47 0 0 0 2120.47)
(2313.57 0 0 0 2313.57 0 0 0 2313.57)
(2496.28 0 0 0 2496.28 0 0 0 2496.28)
(2674.61 0 0 0 2674.61 0 0 0 2674.61)
(2850.69 0 0 0 2850.69 0 0 0 2850.69)
(3025.37 0 0 0 3025.37 0 0 0 3025.37)
(3199.11 0 0 0 3199.11 0 0 0 3199.11)
(3372.17 0 0 0 3372.17 0 0 0 3372.17)
(3544.69 0 0 0 3544.69 0 0 0 3544.69)
(3716.76 0 0 0 3716.76 0 0 0 3716.76)
(3888.43 0 0 0 3888.43 0 0 0 3888.43)
(4059.73 0 0 0 4059.73 0 0 0 4059.73)
(4230.65 0 0 0 4230.65 0 0 0 4230.65)
(4401.22 0 0 0 4401.22 0 0 0 4401.22)
(4571.4 0 0 0 4571.4 0 0 0 4571.4)
(4741.21 0 0 0 4741.21 0 0 0 4741.21)
(4910.61 0 0 0 4910.61 0 0 0 4910.61)
(5079.59 0 0 0 5079.59 0 0 0 5079.59)
(5248.14 0 0 0 5248.14 0 0 0 5248.14)
(5416.24 0 0 0 5416.24 0 0 0 5416.24)
(5583.87 0 0 0 5583.87 0 0 0 5583.87)
(5751.02 0 0 0 5751.02 0 0 0 5751.02)
(5917.66 0 0 0 5917.66 0 0 0 5917.66)
(6083.79 0 0 0 6083.79 0 0 0 6083.79)
(6249.38 0 0 0 6249.38 0 0 0 6249.38)
(6414.42 0 0 0 6414.42 0 0 0 6414.42)
(6578.91 0 0 0 6578.91 0 0 0 6578.91)
(6743.06 0 0 0 6743.06 0 0 0 6743.06)
(6907.19 0 0 0 6907.19 0 0 0 6907.19)
(7071.35 0 0 0 7071.35 0 0 0 7071.35)
(7235.46 0 0 0 7235.46 0 0 0 7235.46)
(7399.42 0 0 0 7399.42 0 0 0 7399.42)
(7563.16 0 0 0 7563.16 0 0 0 7563.16)
(7726.6 0 0 0 7726.6 0 0 0 7726.6)
(7889.68 0 0 0 7889.68 0 0 0 7889.68)
(8052.33 0 0 0 8052.33 0 0 0 8052.33)
(8214.5 0 0 0 8214.5 0 0 0 8214.5)
(8376.13 0 0 0 8376.13 0 0 0 8376.13)
(8537.21 0 0 0 8537.21 0 0 0 8537.21)
(8697.59 0 0 0 8697.59 0 0 0 8697.59)
(8858.09 0 0 0 8858.09 0 0 0 8858.09)
)
;

boundaryField
{
    inlet
    {
        type            zeroGradient;
    }
    outlet
    {
        type            zeroGradient;
    }
    fixedWalls
    {
        type            zeroGradient;
    }
}


// ************************************************************************* //
