/*--------------------------------*- C++ -*----------------------------------*\
| =========                 |                                                 |
| \\      /  F ield         | OpenFOAM: The Open Source CFD Toolbox           |
|  \\    /   O peration     | Version:  2406                                  |
|   \\  /    A nd           | Website:  www.openfoam.com                      |
|    \\/     M anipulation  |                                                 |
\*---------------------------------------------------------------------------*/
FoamFile
{
    version     2.0;
    format      ascii;
    arch        "LSB;label=32;scalar=64";
    class       volScalarField;
    location    "30/fluidRegion";
    object      p;
}
// * * * * * * * * * * * * * * * * * * * * * * * * * * * * * * * * * * * * * //

dimensions      [1 -1 -2 0 0 0 0];

internalField   nonuniform List<scalar> 
70
(
7.23553e+06
7.23506e+06
7.2346e+06
7.23414e+06
7.23367e+06
7.23321e+06
7.23275e+06
7.23228e+06
7.23182e+06
7.23136e+06
7.2309e+06
7.23044e+06
7.22998e+06
7.22952e+06
7.22906e+06
7.2286e+06
7.22814e+06
7.22768e+06
7.22722e+06
7.22676e+06
7.22628e+06
7.22581e+06
7.22532e+06
7.22482e+06
7.22431e+06
7.22378e+06
7.22324e+06
7.22268e+06
7.22211e+06
7.22152e+06
7.22092e+06
7.22031e+06
7.21968e+06
7.21904e+06
7.21839e+06
7.21772e+06
7.21704e+06
7.21634e+06
7.21563e+06
7.21491e+06
7.21417e+06
7.21341e+06
7.21265e+06
7.21186e+06
7.21106e+06
7.21025e+06
7.20942e+06
7.20857e+06
7.20771e+06
7.20684e+06
7.20595e+06
7.20504e+06
7.20412e+06
7.20318e+06
7.20223e+06
7.20126e+06
7.20027e+06
7.19927e+06
7.19825e+06
7.19722e+06
7.19617e+06
7.1951e+06
7.19402e+06
7.19292e+06
7.19181e+06
7.19068e+06
7.18953e+06
7.18837e+06
7.18719e+06
7.18599e+06
)
;

boundaryField
{
    inlet
    {
        type            calculated;
        value           uniform 7.23576e+06;
    }
    outlet
    {
        type            calculated;
        value           uniform 7.18538e+06;
    }
    fixedWalls
    {
        type            calculated;
        value           nonuniform List<scalar> 
280
(
7.23553e+06
7.23506e+06
7.2346e+06
7.23414e+06
7.23367e+06
7.23321e+06
7.23275e+06
7.23228e+06
7.23182e+06
7.23136e+06
7.2309e+06
7.23044e+06
7.22998e+06
7.22952e+06
7.22906e+06
7.2286e+06
7.22814e+06
7.22768e+06
7.22722e+06
7.22676e+06
7.22628e+06
7.22581e+06
7.22532e+06
7.22482e+06
7.22431e+06
7.22378e+06
7.22324e+06
7.22268e+06
7.22211e+06
7.22152e+06
7.22092e+06
7.22031e+06
7.21968e+06
7.21904e+06
7.21839e+06
7.21772e+06
7.21704e+06
7.21634e+06
7.21563e+06
7.21491e+06
7.21417e+06
7.21341e+06
7.21265e+06
7.21186e+06
7.21106e+06
7.21025e+06
7.20942e+06
7.20857e+06
7.20771e+06
7.20684e+06
7.20595e+06
7.20504e+06
7.20412e+06
7.20318e+06
7.20223e+06
7.20126e+06
7.20027e+06
7.19927e+06
7.19825e+06
7.19722e+06
7.19617e+06
7.1951e+06
7.19402e+06
7.19292e+06
7.19181e+06
7.19068e+06
7.18953e+06
7.18837e+06
7.18719e+06
7.18599e+06
7.23553e+06
7.23506e+06
7.2346e+06
7.23414e+06
7.23367e+06
7.23321e+06
7.23275e+06
7.23228e+06
7.23182e+06
7.23136e+06
7.2309e+06
7.23044e+06
7.22998e+06
7.22952e+06
7.22906e+06
7.2286e+06
7.22814e+06
7.22768e+06
7.22722e+06
7.22676e+06
7.22628e+06
7.22581e+06
7.22532e+06
7.22482e+06
7.22431e+06
7.22378e+06
7.22324e+06
7.22268e+06
7.22211e+06
7.22152e+06
7.22092e+06
7.22031e+06
7.21968e+06
7.21904e+06
7.21839e+06
7.21772e+06
7.21704e+06
7.21634e+06
7.21563e+06
7.21491e+06
7.21417e+06
7.21341e+06
7.21265e+06
7.21186e+06
7.21106e+06
7.21025e+06
7.20942e+06
7.20857e+06
7.20771e+06
7.20684e+06
7.20595e+06
7.20504e+06
7.20412e+06
7.20318e+06
7.20223e+06
7.20126e+06
7.20027e+06
7.19927e+06
7.19825e+06
7.19722e+06
7.19617e+06
7.1951e+06
7.19402e+06
7.19292e+06
7.19181e+06
7.19068e+06
7.18953e+06
7.18837e+06
7.18719e+06
7.18599e+06
7.23553e+06
7.23506e+06
7.2346e+06
7.23414e+06
7.23367e+06
7.23321e+06
7.23275e+06
7.23228e+06
7.23182e+06
7.23136e+06
7.2309e+06
7.23044e+06
7.22998e+06
7.22952e+06
7.22906e+06
7.2286e+06
7.22814e+06
7.22768e+06
7.22722e+06
7.22676e+06
7.22628e+06
7.22581e+06
7.22532e+06
7.22482e+06
7.22431e+06
7.22378e+06
7.22324e+06
7.22268e+06
7.22211e+06
7.22152e+06
7.22092e+06
7.22031e+06
7.21968e+06
7.21904e+06
7.21839e+06
7.21772e+06
7.21704e+06
7.21634e+06
7.21563e+06
7.21491e+06
7.21417e+06
7.21341e+06
7.21265e+06
7.21186e+06
7.21106e+06
7.21025e+06
7.20942e+06
7.20857e+06
7.20771e+06
7.20684e+06
7.20595e+06
7.20504e+06
7.20412e+06
7.20318e+06
7.20223e+06
7.20126e+06
7.20027e+06
7.19927e+06
7.19825e+06
7.19722e+06
7.19617e+06
7.1951e+06
7.19402e+06
7.19292e+06
7.19181e+06
7.19068e+06
7.18953e+06
7.18837e+06
7.18719e+06
7.18599e+06
7.23553e+06
7.23506e+06
7.2346e+06
7.23414e+06
7.23367e+06
7.23321e+06
7.23275e+06
7.23228e+06
7.23182e+06
7.23136e+06
7.2309e+06
7.23044e+06
7.22998e+06
7.22952e+06
7.22906e+06
7.2286e+06
7.22814e+06
7.22768e+06
7.22722e+06
7.22676e+06
7.22628e+06
7.22581e+06
7.22532e+06
7.22482e+06
7.22431e+06
7.22378e+06
7.22324e+06
7.22268e+06
7.22211e+06
7.22152e+06
7.22092e+06
7.22031e+06
7.21968e+06
7.21904e+06
7.21839e+06
7.21772e+06
7.21704e+06
7.21634e+06
7.21563e+06
7.21491e+06
7.21417e+06
7.21341e+06
7.21265e+06
7.21186e+06
7.21106e+06
7.21025e+06
7.20942e+06
7.20857e+06
7.20771e+06
7.20684e+06
7.20595e+06
7.20504e+06
7.20412e+06
7.20318e+06
7.20223e+06
7.20126e+06
7.20027e+06
7.19927e+06
7.19825e+06
7.19722e+06
7.19617e+06
7.1951e+06
7.19402e+06
7.19292e+06
7.19181e+06
7.19068e+06
7.18953e+06
7.18837e+06
7.18719e+06
7.18599e+06
)
;
    }
}


// ************************************************************************* //
