/*--------------------------------*- C++ -*----------------------------------*\
| =========                 |                                                 |
| \\      /  F ield         | OpenFOAM: The Open Source CFD Toolbox           |
|  \\    /   O peration     | Version:  2406                                  |
|   \\  /    A nd           | Website:  www.openfoam.com                      |
|    \\/     M anipulation  |                                                 |
\*---------------------------------------------------------------------------*/
FoamFile
{
    version     2.0;
    format      ascii;
    arch        "LSB;label=32;scalar=64";
    class       volScalarField;
    location    "30/fluidRegion";
    object      p_rgh;
}
// * * * * * * * * * * * * * * * * * * * * * * * * * * * * * * * * * * * * * //

dimensions      [1 -1 -2 0 0 0 0];

internalField   nonuniform List<scalar> 
70
(
7.23573e+06
7.23567e+06
7.23561e+06
7.23555e+06
7.23549e+06
7.23543e+06
7.23537e+06
7.23531e+06
7.23525e+06
7.23519e+06
7.23512e+06
7.23506e+06
7.23499e+06
7.23493e+06
7.23486e+06
7.2348e+06
7.23473e+06
7.23466e+06
7.23457e+06
7.23445e+06
7.23431e+06
7.23412e+06
7.23389e+06
7.23362e+06
7.23331e+06
7.23296e+06
7.23257e+06
7.23216e+06
7.23172e+06
7.23125e+06
7.23079e+06
7.23031e+06
7.22982e+06
7.22932e+06
7.22881e+06
7.22828e+06
7.22773e+06
7.22717e+06
7.22659e+06
7.22599e+06
7.22538e+06
7.22475e+06
7.22411e+06
7.22345e+06
7.22278e+06
7.22208e+06
7.22138e+06
7.22065e+06
7.21991e+06
7.21915e+06
7.21838e+06
7.21759e+06
7.21678e+06
7.21596e+06
7.21512e+06
7.21426e+06
7.21339e+06
7.2125e+06
7.2116e+06
7.21067e+06
7.20973e+06
7.20877e+06
7.2078e+06
7.20681e+06
7.2058e+06
7.20478e+06
7.20374e+06
7.20268e+06
7.20161e+06
7.20051e+06
)
;

boundaryField
{
    inlet
    {
        type            fixedFluxPressure;
        gradient        uniform 1066.75;
        value           uniform 7.23576e+06;
    }
    outlet
    {
        type            fixedValue;
        value           uniform 7.2e+06;
    }
    fixedWalls
    {
        type            fixedFluxPressure;
        gradient        nonuniform List<scalar> 
280
(
0
0
0
0
0
0
0
0
0
0
0
1.05238e-17
-2.24868e-20
-1.05238e-17
-1.04114e-17
2.24868e-20
2.07328e-17
-4.49735e-20
-2.70528e-17
2.29819e-17
1.30503e-17
-7.61272e-17
6.79272e-17
1.11998e-16
-4.83636e-17
-5.438e-17
7.28992e-17
7.5054e-17
-6.46287e-17
1.72246e-17
7.35423e-17
-7.30412e-17
-6.85302e-17
0
-1.60562e-16
2.47253e-18
6.99466e-17
8.77793e-17
7.3931e-17
-1.60964e-16
4.14201e-18
1.6065e-16
-8.82063e-17
-7.47446e-17
8.25807e-17
-1.67276e-16
1.80513e-18
3.2245e-16
-3.50876e-18
-1.59412e-16
0
1.64632e-16
-3.30482e-18
-1.60214e-16
1.67724e-16
-3.16962e-18
-1.63767e-16
1.6807e-16
-3.06402e-18
-3.29007e-16
1.68814e-16
1.5828e-16
-3.31176e-16
5.82498e-18
1.65527e-16
-1.66954e-16
2.84438e-18
1.64278e-16
0
0
0
0
0
0
0
0
0
0
0
0
0
-1.05238e-17
2.24868e-20
1.05238e-17
1.04114e-17
-2.24868e-20
-2.07328e-17
4.49735e-20
2.70528e-17
-2.29819e-17
-1.30503e-17
7.61272e-17
-6.79272e-17
-1.11998e-16
4.83636e-17
5.438e-17
-7.28992e-17
-7.5054e-17
6.46287e-17
-1.72246e-17
-7.35423e-17
7.30412e-17
6.85302e-17
0
1.60562e-16
-2.47253e-18
-6.99466e-17
-8.77793e-17
-7.3931e-17
1.60964e-16
-4.14201e-18
-1.6065e-16
8.82063e-17
7.47446e-17
-8.25807e-17
1.67276e-16
-1.80513e-18
-3.2245e-16
3.50876e-18
1.59412e-16
0
-1.64632e-16
3.30482e-18
1.60214e-16
-1.67724e-16
3.16962e-18
1.63767e-16
-1.6807e-16
3.06402e-18
3.29007e-16
-1.68814e-16
-1.5828e-16
3.31176e-16
-5.82498e-18
-1.65527e-16
1.66954e-16
-2.84438e-18
-1.64278e-16
0
0
0
0
0
0
0
0
0
0
0
0
0
1.05238e-17
-2.24868e-20
-1.05238e-17
-1.04114e-17
2.24868e-20
2.07328e-17
-4.49735e-20
-2.70528e-17
2.29819e-17
1.30503e-17
-7.61272e-17
6.79272e-17
1.11998e-16
-4.83636e-17
-5.438e-17
7.28992e-17
7.5054e-17
-6.46287e-17
1.72246e-17
7.35423e-17
-7.30412e-17
-6.85302e-17
0
-1.60562e-16
2.47253e-18
6.99466e-17
8.77793e-17
7.3931e-17
-1.60964e-16
4.14201e-18
1.6065e-16
-8.82063e-17
-7.47446e-17
8.25807e-17
-1.67276e-16
1.80513e-18
3.2245e-16
-3.50876e-18
-1.59412e-16
0
1.64632e-16
-3.30482e-18
-1.60214e-16
1.67724e-16
-3.16962e-18
-1.63767e-16
1.6807e-16
-3.06402e-18
-3.29007e-16
1.68814e-16
1.5828e-16
-3.31176e-16
5.82498e-18
1.65527e-16
-1.66954e-16
2.84438e-18
1.64278e-16
0
0
0
0
0
0
0
0
0
0
0
0
0
-1.05238e-17
2.24868e-20
1.05238e-17
1.04114e-17
-2.24868e-20
-2.07328e-17
4.49735e-20
2.70528e-17
-2.29819e-17
-1.30503e-17
7.61272e-17
-6.79272e-17
-1.11998e-16
4.83636e-17
5.438e-17
-7.28992e-17
-7.5054e-17
6.46287e-17
-1.72246e-17
-7.35423e-17
7.30412e-17
6.85302e-17
0
1.60562e-16
-2.47253e-18
-6.99466e-17
-8.77793e-17
-7.3931e-17
1.60964e-16
-4.14201e-18
-1.6065e-16
8.82063e-17
7.47446e-17
-8.25807e-17
1.67276e-16
-1.80513e-18
-3.2245e-16
3.50876e-18
1.59412e-16
0
-1.64632e-16
3.30482e-18
1.60214e-16
-1.67724e-16
3.16962e-18
1.63767e-16
-1.6807e-16
3.06402e-18
3.29007e-16
-1.68814e-16
-1.5828e-16
3.31176e-16
-5.82498e-18
-1.65527e-16
1.66954e-16
-2.84438e-18
-1.64278e-16
0
0
)
;
        value           nonuniform List<scalar> 
280
(
7.23573e+06
7.23567e+06
7.23561e+06
7.23555e+06
7.23549e+06
7.23543e+06
7.23537e+06
7.23531e+06
7.23525e+06
7.23519e+06
7.23512e+06
7.23506e+06
7.23499e+06
7.23493e+06
7.23486e+06
7.2348e+06
7.23473e+06
7.23466e+06
7.23457e+06
7.23445e+06
7.23431e+06
7.23412e+06
7.23389e+06
7.23362e+06
7.23331e+06
7.23296e+06
7.23257e+06
7.23216e+06
7.23172e+06
7.23125e+06
7.23079e+06
7.23031e+06
7.22982e+06
7.22932e+06
7.22881e+06
7.22828e+06
7.22773e+06
7.22717e+06
7.22659e+06
7.22599e+06
7.22538e+06
7.22475e+06
7.22411e+06
7.22345e+06
7.22278e+06
7.22208e+06
7.22138e+06
7.22065e+06
7.21991e+06
7.21915e+06
7.21838e+06
7.21759e+06
7.21678e+06
7.21596e+06
7.21512e+06
7.21426e+06
7.21339e+06
7.2125e+06
7.2116e+06
7.21067e+06
7.20973e+06
7.20877e+06
7.2078e+06
7.20681e+06
7.2058e+06
7.20478e+06
7.20374e+06
7.20268e+06
7.20161e+06
7.20051e+06
7.23573e+06
7.23567e+06
7.23561e+06
7.23555e+06
7.23549e+06
7.23543e+06
7.23537e+06
7.23531e+06
7.23525e+06
7.23519e+06
7.23512e+06
7.23506e+06
7.23499e+06
7.23493e+06
7.23486e+06
7.2348e+06
7.23473e+06
7.23466e+06
7.23457e+06
7.23445e+06
7.23431e+06
7.23412e+06
7.23389e+06
7.23362e+06
7.23331e+06
7.23296e+06
7.23257e+06
7.23216e+06
7.23172e+06
7.23125e+06
7.23079e+06
7.23031e+06
7.22982e+06
7.22932e+06
7.22881e+06
7.22828e+06
7.22773e+06
7.22717e+06
7.22659e+06
7.22599e+06
7.22538e+06
7.22475e+06
7.22411e+06
7.22345e+06
7.22278e+06
7.22208e+06
7.22138e+06
7.22065e+06
7.21991e+06
7.21915e+06
7.21838e+06
7.21759e+06
7.21678e+06
7.21596e+06
7.21512e+06
7.21426e+06
7.21339e+06
7.2125e+06
7.2116e+06
7.21067e+06
7.20973e+06
7.20877e+06
7.2078e+06
7.20681e+06
7.2058e+06
7.20478e+06
7.20374e+06
7.20268e+06
7.20161e+06
7.20051e+06
7.23573e+06
7.23567e+06
7.23561e+06
7.23555e+06
7.23549e+06
7.23543e+06
7.23537e+06
7.23531e+06
7.23525e+06
7.23519e+06
7.23512e+06
7.23506e+06
7.23499e+06
7.23493e+06
7.23486e+06
7.2348e+06
7.23473e+06
7.23466e+06
7.23457e+06
7.23445e+06
7.23431e+06
7.23412e+06
7.23389e+06
7.23362e+06
7.23331e+06
7.23296e+06
7.23257e+06
7.23216e+06
7.23172e+06
7.23125e+06
7.23079e+06
7.23031e+06
7.22982e+06
7.22932e+06
7.22881e+06
7.22828e+06
7.22773e+06
7.22717e+06
7.22659e+06
7.22599e+06
7.22538e+06
7.22475e+06
7.22411e+06
7.22345e+06
7.22278e+06
7.22208e+06
7.22138e+06
7.22065e+06
7.21991e+06
7.21915e+06
7.21838e+06
7.21759e+06
7.21678e+06
7.21596e+06
7.21512e+06
7.21426e+06
7.21339e+06
7.2125e+06
7.2116e+06
7.21067e+06
7.20973e+06
7.20877e+06
7.2078e+06
7.20681e+06
7.2058e+06
7.20478e+06
7.20374e+06
7.20268e+06
7.20161e+06
7.20051e+06
7.23573e+06
7.23567e+06
7.23561e+06
7.23555e+06
7.23549e+06
7.23543e+06
7.23537e+06
7.23531e+06
7.23525e+06
7.23519e+06
7.23512e+06
7.23506e+06
7.23499e+06
7.23493e+06
7.23486e+06
7.2348e+06
7.23473e+06
7.23466e+06
7.23457e+06
7.23445e+06
7.23431e+06
7.23412e+06
7.23389e+06
7.23362e+06
7.23331e+06
7.23296e+06
7.23257e+06
7.23216e+06
7.23172e+06
7.23125e+06
7.23079e+06
7.23031e+06
7.22982e+06
7.22932e+06
7.22881e+06
7.22828e+06
7.22773e+06
7.22717e+06
7.22659e+06
7.22599e+06
7.22538e+06
7.22475e+06
7.22411e+06
7.22345e+06
7.22278e+06
7.22208e+06
7.22138e+06
7.22065e+06
7.21991e+06
7.21915e+06
7.21838e+06
7.21759e+06
7.21678e+06
7.21596e+06
7.21512e+06
7.21426e+06
7.21339e+06
7.2125e+06
7.2116e+06
7.21067e+06
7.20973e+06
7.20877e+06
7.2078e+06
7.20681e+06
7.2058e+06
7.20478e+06
7.20374e+06
7.20268e+06
7.20161e+06
7.20051e+06
)
;
    }
}


// ************************************************************************* //
