/*--------------------------------*- C++ -*----------------------------------*\
| =========                 |                                                 |
| \\      /  F ield         | OpenFOAM: The Open Source CFD Toolbox           |
|  \\    /   O peration     | Version:  2406                                  |
|   \\  /    A nd           | Website:  www.openfoam.com                      |
|    \\/     M anipulation  |                                                 |
\*---------------------------------------------------------------------------*/
FoamFile
{
    version     2.0;
    format      ascii;
    arch        "LSB;label=32;scalar=64";
    class       volScalarField;
    location    "30/fluidRegion";
    object      alphaRhoMagU.vapour;
}
// * * * * * * * * * * * * * * * * * * * * * * * * * * * * * * * * * * * * * //

dimensions      [1 -2 -1 0 0 0 0];

internalField   nonuniform List<scalar> 
75
(
0.0695006
0.0401513
0.0243932
0.0148549
0.00915151
0.0056882
0.00376362
0.0026593
0.0019807
0.00153623
0.00122969
0.00100985
0.000847296
0.000724083
0.000628759
0.000553738
0.000493843
0.000445451
0.000405972
0.000373554
0.000731307
0.0450606
0.129948
0.249118
0.402279
0.589824
0.813551
1.076
1.38033
1.73002
2.12873
2.57998
3.08692
3.65204
4.2769
4.9619
5.70613
6.50739
7.36223
8.24841
9.14876
10.0572
10.9722
11.8928
12.8188
13.7499
14.686
15.6268
16.5723
17.5223
18.4769
19.4357
20.3989
21.3662
22.3376
23.3129
24.2921
25.2751
26.2618
27.252
28.2458
29.2429
30.2433
31.2469
32.2537
33.2634
34.2761
35.2916
36.3099
37.332
38.3587
39.3898
40.4254
41.4647
42.5154
)
;

boundaryField
{
    inlet
    {
        type            calculated;
        value           uniform 0.111419;
    }
    outlet
    {
        type            calculated;
        value           uniform 42.5144;
    }
    fixedWalls
    {
        type            calculated;
        value           nonuniform List<scalar> 
300
(
0.0695006
0.0401513
0.0243932
0.0148549
0.00915151
0.0056882
0.00376362
0.0026593
0.0019807
0.00153623
0.00122969
0.00100985
0.000847296
0.000724083
0.000628759
0.000553738
0.000493843
0.000445451
0.000405972
0.000373554
0.000731307
0.0450606
0.129948
0.249118
0.402279
0.589824
0.813551
1.076
1.38033
1.73002
2.12873
2.57998
3.08692
3.65204
4.2769
4.9619
5.70613
6.50739
7.36223
8.24841
9.14876
10.0572
10.9722
11.8928
12.8188
13.7499
14.686
15.6268
16.5723
17.5223
18.4769
19.4357
20.3989
21.3662
22.3376
23.3129
24.2921
25.2751
26.2618
27.252
28.2458
29.2429
30.2433
31.2469
32.2537
33.2634
34.2761
35.2916
36.3099
37.332
38.3587
39.3898
40.4254
41.4647
42.5154
0.0695006
0.0401513
0.0243932
0.0148549
0.00915151
0.0056882
0.00376362
0.0026593
0.0019807
0.00153623
0.00122969
0.00100985
0.000847296
0.000724083
0.000628759
0.000553738
0.000493843
0.000445451
0.000405972
0.000373554
0.000731307
0.0450606
0.129948
0.249118
0.402279
0.589824
0.813551
1.076
1.38033
1.73002
2.12873
2.57998
3.08692
3.65204
4.2769
4.9619
5.70613
6.50739
7.36223
8.24841
9.14876
10.0572
10.9722
11.8928
12.8188
13.7499
14.686
15.6268
16.5723
17.5223
18.4769
19.4357
20.3989
21.3662
22.3376
23.3129
24.2921
25.2751
26.2618
27.252
28.2458
29.2429
30.2433
31.2469
32.2537
33.2634
34.2761
35.2916
36.3099
37.332
38.3587
39.3898
40.4254
41.4647
42.5154
0.0695006
0.0401513
0.0243932
0.0148549
0.00915151
0.0056882
0.00376362
0.0026593
0.0019807
0.00153623
0.00122969
0.00100985
0.000847296
0.000724083
0.000628759
0.000553738
0.000493843
0.000445451
0.000405972
0.000373554
0.000731307
0.0450606
0.129948
0.249118
0.402279
0.589824
0.813551
1.076
1.38033
1.73002
2.12873
2.57998
3.08692
3.65204
4.2769
4.9619
5.70613
6.50739
7.36223
8.24841
9.14876
10.0572
10.9722
11.8928
12.8188
13.7499
14.686
15.6268
16.5723
17.5223
18.4769
19.4357
20.3989
21.3662
22.3376
23.3129
24.2921
25.2751
26.2618
27.252
28.2458
29.2429
30.2433
31.2469
32.2537
33.2634
34.2761
35.2916
36.3099
37.332
38.3587
39.3898
40.4254
41.4647
42.5154
0.0695006
0.0401513
0.0243932
0.0148549
0.00915151
0.0056882
0.00376362
0.0026593
0.0019807
0.00153623
0.00122969
0.00100985
0.000847296
0.000724083
0.000628759
0.000553738
0.000493843
0.000445451
0.000405972
0.000373554
0.000731307
0.0450606
0.129948
0.249118
0.402279
0.589824
0.813551
1.076
1.38033
1.73002
2.12873
2.57998
3.08692
3.65204
4.2769
4.9619
5.70613
6.50739
7.36223
8.24841
9.14876
10.0572
10.9722
11.8928
12.8188
13.7499
14.686
15.6268
16.5723
17.5223
18.4769
19.4357
20.3989
21.3662
22.3376
23.3129
24.2921
25.2751
26.2618
27.252
28.2458
29.2429
30.2433
31.2469
32.2537
33.2634
34.2761
35.2916
36.3099
37.332
38.3587
39.3898
40.4254
41.4647
42.5154
)
;
    }
}


// ************************************************************************* //
