/*--------------------------------*- C++ -*----------------------------------*\
| =========                 |                                                 |
| \\      /  F ield         | OpenFOAM: The Open Source CFD Toolbox           |
|  \\    /   O peration     | Version:  2406                                  |
|   \\  /    A nd           | Website:  www.openfoam.com                      |
|    \\/     M anipulation  |                                                 |
\*---------------------------------------------------------------------------*/
FoamFile
{
    version     2.0;
    format      ascii;
    arch        "LSB;label=32;scalar=64";
    class       volScalarField;
    location    "30/fluidRegion";
    object      dgdt.vapour;
}
// * * * * * * * * * * * * * * * * * * * * * * * * * * * * * * * * * * * * * //

dimensions      [0 0 -1 0 0 0 0];

internalField   nonuniform List<scalar> 
75
(
-0.0785292
-0.0485877
-0.0293525
-0.0173329
-0.00998421
-0.00533168
-0.00292099
-0.00170463
-0.00106458
-0.000705595
-0.000489852
-0.000352636
-0.000261333
-0.000198364
-0.000153614
-0.00012098
-9.66357e-05
-7.81041e-05
-6.37362e-05
-5.23614e-05
0.000580586
0.0778016
0.13854
0.195165
0.250418
0.306957
0.366577
0.430611
0.499985
0.57527
0.656653
0.743908
0.836342
0.932786
1.03161
1.13079
1.22809
1.32118
1.40993
1.45145
1.46979
1.48237
1.49255
1.50155
1.50989
1.51783
1.52548
1.53292
1.54018
1.54729
1.55426
1.56108
1.56777
1.57433
1.58074
1.58703
1.59317
1.59918
1.60505
1.61079
1.61639
1.62185
1.62719
1.63238
1.63745
1.64239
1.64721
1.6519
1.65646
1.66359
1.6713
1.67881
1.68612
1.69324
1.7018
)
;

boundaryField
{
    inlet
    {
        type            calculated;
        value           uniform -0.0785292;
    }
    outlet
    {
        type            calculated;
        value           uniform 1.7018;
    }
    fixedWalls
    {
        type            calculated;
        value           nonuniform List<scalar> 
300
(
-0.0785292
-0.0485877
-0.0293525
-0.0173329
-0.00998421
-0.00533168
-0.00292099
-0.00170463
-0.00106458
-0.000705595
-0.000489852
-0.000352636
-0.000261333
-0.000198364
-0.000153614
-0.00012098
-9.66357e-05
-7.81041e-05
-6.37362e-05
-5.23614e-05
0.000580586
0.0778016
0.13854
0.195165
0.250418
0.306957
0.366577
0.430611
0.499985
0.57527
0.656653
0.743908
0.836342
0.932786
1.03161
1.13079
1.22809
1.32118
1.40993
1.45145
1.46979
1.48237
1.49255
1.50155
1.50989
1.51783
1.52548
1.53292
1.54018
1.54729
1.55426
1.56108
1.56777
1.57433
1.58074
1.58703
1.59317
1.59918
1.60505
1.61079
1.61639
1.62185
1.62719
1.63238
1.63745
1.64239
1.64721
1.6519
1.65646
1.66359
1.6713
1.67881
1.68612
1.69324
1.7018
-0.0785292
-0.0485877
-0.0293525
-0.0173329
-0.00998421
-0.00533168
-0.00292099
-0.00170463
-0.00106458
-0.000705595
-0.000489852
-0.000352636
-0.000261333
-0.000198364
-0.000153614
-0.00012098
-9.66357e-05
-7.81041e-05
-6.37362e-05
-5.23614e-05
0.000580586
0.0778016
0.13854
0.195165
0.250418
0.306957
0.366577
0.430611
0.499985
0.57527
0.656653
0.743908
0.836342
0.932786
1.03161
1.13079
1.22809
1.32118
1.40993
1.45145
1.46979
1.48237
1.49255
1.50155
1.50989
1.51783
1.52548
1.53292
1.54018
1.54729
1.55426
1.56108
1.56777
1.57433
1.58074
1.58703
1.59317
1.59918
1.60505
1.61079
1.61639
1.62185
1.62719
1.63238
1.63745
1.64239
1.64721
1.6519
1.65646
1.66359
1.6713
1.67881
1.68612
1.69324
1.7018
-0.0785292
-0.0485877
-0.0293525
-0.0173329
-0.00998421
-0.00533168
-0.00292099
-0.00170463
-0.00106458
-0.000705595
-0.000489852
-0.000352636
-0.000261333
-0.000198364
-0.000153614
-0.00012098
-9.66357e-05
-7.81041e-05
-6.37362e-05
-5.23614e-05
0.000580586
0.0778016
0.13854
0.195165
0.250418
0.306957
0.366577
0.430611
0.499985
0.57527
0.656653
0.743908
0.836342
0.932786
1.03161
1.13079
1.22809
1.32118
1.40993
1.45145
1.46979
1.48237
1.49255
1.50155
1.50989
1.51783
1.52548
1.53292
1.54018
1.54729
1.55426
1.56108
1.56777
1.57433
1.58074
1.58703
1.59317
1.59918
1.60505
1.61079
1.61639
1.62185
1.62719
1.63238
1.63745
1.64239
1.64721
1.6519
1.65646
1.66359
1.6713
1.67881
1.68612
1.69324
1.7018
-0.0785292
-0.0485877
-0.0293525
-0.0173329
-0.00998421
-0.00533168
-0.00292099
-0.00170463
-0.00106458
-0.000705595
-0.000489852
-0.000352636
-0.000261333
-0.000198364
-0.000153614
-0.00012098
-9.66357e-05
-7.81041e-05
-6.37362e-05
-5.23614e-05
0.000580586
0.0778016
0.13854
0.195165
0.250418
0.306957
0.366577
0.430611
0.499985
0.57527
0.656653
0.743908
0.836342
0.932786
1.03161
1.13079
1.22809
1.32118
1.40993
1.45145
1.46979
1.48237
1.49255
1.50155
1.50989
1.51783
1.52548
1.53292
1.54018
1.54729
1.55426
1.56108
1.56777
1.57433
1.58074
1.58703
1.59317
1.59918
1.60505
1.61079
1.61639
1.62185
1.62719
1.63238
1.63745
1.64239
1.64721
1.6519
1.65646
1.66359
1.6713
1.67881
1.68612
1.69324
1.7018
)
;
    }
}


// ************************************************************************* //
