/*--------------------------------*- C++ -*----------------------------------*\
| =========                 |                                                 |
| \\      /  F ield         | OpenFOAM: The Open Source CFD Toolbox           |
|  \\    /   O peration     | Version:  2406                                  |
|   \\  /    A nd           | Website:  www.openfoam.com                      |
|    \\/     M anipulation  |                                                 |
\*---------------------------------------------------------------------------*/
FoamFile
{
    version     2.0;
    format      ascii;
    arch        "LSB;label=32;scalar=64";
    class       volScalarField;
    location    "30/fluidRegion";
    object      alphaRhoMagU.vapour;
}
// * * * * * * * * * * * * * * * * * * * * * * * * * * * * * * * * * * * * * //

dimensions      [1 -2 -1 0 0 0 0];

internalField   nonuniform List<scalar> 
70
(
0
0
0
0
0
0
0
0.159096
0.565308
1.15809
2.01842
3.1809
4.67563
6.4989
8.60747
10.8428
13.1195
15.4214
17.7473
20.0967
22.4687
24.8625
27.2772
29.7118
32.1654
34.6368
37.1252
39.6295
42.1518
44.6977
47.2674
49.8591
52.471
55.1012
57.747
60.4137
63.0567
65.6206
68.174
70.7168
73.2595
75.8046
78.3547
80.911
83.4744
86.0455
88.6244
91.2112
93.8058
96.408
99.0178
101.635
104.259
106.89
109.527
112.17
114.82
117.475
120.135
122.8
125.47
128.145
130.823
133.508
136.192
138.889
141.567
144.303
146.91
149.849
)
;

boundaryField
{
    inlet
    {
        type            calculated;
        value           uniform 0;
    }
    outlet
    {
        type            calculated;
        value           uniform 149.815;
    }
    fixedWalls
    {
        type            calculated;
        value           nonuniform List<scalar> 
280
(
0
0
0
0
0
0
0
0.159096
0.565308
1.15809
2.01842
3.1809
4.67563
6.4989
8.60747
10.8428
13.1195
15.4214
17.7473
20.0967
22.4687
24.8625
27.2772
29.7118
32.1654
34.6368
37.1252
39.6295
42.1518
44.6977
47.2674
49.8591
52.471
55.1012
57.747
60.4137
63.0567
65.6206
68.174
70.7168
73.2595
75.8046
78.3547
80.911
83.4744
86.0455
88.6244
91.2112
93.8058
96.408
99.0178
101.635
104.259
106.89
109.527
112.17
114.82
117.475
120.135
122.8
125.47
128.145
130.823
133.508
136.192
138.889
141.567
144.303
146.91
149.849
0
0
0
0
0
0
0
0.159096
0.565308
1.15809
2.01842
3.1809
4.67563
6.4989
8.60747
10.8428
13.1195
15.4214
17.7473
20.0967
22.4687
24.8625
27.2772
29.7118
32.1654
34.6368
37.1252
39.6295
42.1518
44.6977
47.2674
49.8591
52.471
55.1012
57.747
60.4137
63.0567
65.6206
68.174
70.7168
73.2595
75.8046
78.3547
80.911
83.4744
86.0455
88.6244
91.2112
93.8058
96.408
99.0178
101.635
104.259
106.89
109.527
112.17
114.82
117.475
120.135
122.8
125.47
128.145
130.823
133.508
136.192
138.889
141.567
144.303
146.91
149.849
0
0
0
0
0
0
0
0.159096
0.565308
1.15809
2.01842
3.1809
4.67563
6.4989
8.60747
10.8428
13.1195
15.4214
17.7473
20.0967
22.4687
24.8625
27.2772
29.7118
32.1654
34.6368
37.1252
39.6295
42.1518
44.6977
47.2674
49.8591
52.471
55.1012
57.747
60.4137
63.0567
65.6206
68.174
70.7168
73.2595
75.8046
78.3547
80.911
83.4744
86.0455
88.6244
91.2112
93.8058
96.408
99.0178
101.635
104.259
106.89
109.527
112.17
114.82
117.475
120.135
122.8
125.47
128.145
130.823
133.508
136.192
138.889
141.567
144.303
146.91
149.849
0
0
0
0
0
0
0
0.159096
0.565308
1.15809
2.01842
3.1809
4.67563
6.4989
8.60747
10.8428
13.1195
15.4214
17.7473
20.0967
22.4687
24.8625
27.2772
29.7118
32.1654
34.6368
37.1252
39.6295
42.1518
44.6977
47.2674
49.8591
52.471
55.1012
57.747
60.4137
63.0567
65.6206
68.174
70.7168
73.2595
75.8046
78.3547
80.911
83.4744
86.0455
88.6244
91.2112
93.8058
96.408
99.0178
101.635
104.259
106.89
109.527
112.17
114.82
117.475
120.135
122.8
125.47
128.145
130.823
133.508
136.192
138.889
141.567
144.303
146.91
149.849
)
;
    }
}


// ************************************************************************* //
