/*--------------------------------*- C++ -*----------------------------------*\
| =========                 |                                                 |
| \\      /  F ield         | OpenFOAM: The Open Source CFD Toolbox           |
|  \\    /   O peration     | Version:  2406                                  |
|   \\  /    A nd           | Website:  www.openfoam.com                      |
|    \\/     M anipulation  |                                                 |
\*---------------------------------------------------------------------------*/
FoamFile
{
    version     2.0;
    format      ascii;
    arch        "LSB;label=32;scalar=64";
    class       volScalarField;
    location    "30/fluidRegion";
    object      dgdt.vapour;
}
// * * * * * * * * * * * * * * * * * * * * * * * * * * * * * * * * * * * * * //

dimensions      [0 0 -1 0 0 0 0];

internalField   nonuniform List<scalar> 
70
(
-0
-0
-0
-0
-0
-0
-0
0.133651
0.250009
0.399383
0.577321
0.787315
1.01665
1.24189
1.43564
1.4993
1.51935
1.53536
1.55033
1.56473
1.57864
1.59204
1.6049
1.6172
1.62893
1.6401
1.65071
1.66076
1.67301
1.68969
1.70513
1.71936
1.73241
1.74431
1.7551
1.76484
1.77353
1.70953
1.69176
1.68681
1.68711
1.69009
1.69455
1.6999
1.70576
1.71192
1.71822
1.72459
1.73094
1.73725
1.74347
1.74958
1.75559
1.76146
1.76721
1.77283
1.77832
1.78369
1.78893
1.79405
1.79907
1.80397
1.80877
1.81347
1.81811
1.82259
1.82717
1.83125
1.83627
1.8616
)
;

boundaryField
{
    inlet
    {
        type            calculated;
        value           uniform -0;
    }
    outlet
    {
        type            calculated;
        value           uniform 1.8616;
    }
    fixedWalls
    {
        type            calculated;
        value           nonuniform List<scalar> 
280
(
-0
-0
-0
-0
-0
-0
-0
0.133651
0.250009
0.399383
0.577321
0.787315
1.01665
1.24189
1.43564
1.4993
1.51935
1.53536
1.55033
1.56473
1.57864
1.59204
1.6049
1.6172
1.62893
1.6401
1.65071
1.66076
1.67301
1.68969
1.70513
1.71936
1.73241
1.74431
1.7551
1.76484
1.77353
1.70953
1.69176
1.68681
1.68711
1.69009
1.69455
1.6999
1.70576
1.71192
1.71822
1.72459
1.73094
1.73725
1.74347
1.74958
1.75559
1.76146
1.76721
1.77283
1.77832
1.78369
1.78893
1.79405
1.79907
1.80397
1.80877
1.81347
1.81811
1.82259
1.82717
1.83125
1.83627
1.8616
-0
-0
-0
-0
-0
-0
-0
0.133651
0.250009
0.399383
0.577321
0.787315
1.01665
1.24189
1.43564
1.4993
1.51935
1.53536
1.55033
1.56473
1.57864
1.59204
1.6049
1.6172
1.62893
1.6401
1.65071
1.66076
1.67301
1.68969
1.70513
1.71936
1.73241
1.74431
1.7551
1.76484
1.77353
1.70953
1.69176
1.68681
1.68711
1.69009
1.69455
1.6999
1.70576
1.71192
1.71822
1.72459
1.73094
1.73725
1.74347
1.74958
1.75559
1.76146
1.76721
1.77283
1.77832
1.78369
1.78893
1.79405
1.79907
1.80397
1.80877
1.81347
1.81811
1.82259
1.82717
1.83125
1.83627
1.8616
-0
-0
-0
-0
-0
-0
-0
0.133651
0.250009
0.399383
0.577321
0.787315
1.01665
1.24189
1.43564
1.4993
1.51935
1.53536
1.55033
1.56473
1.57864
1.59204
1.6049
1.6172
1.62893
1.6401
1.65071
1.66076
1.67301
1.68969
1.70513
1.71936
1.73241
1.74431
1.7551
1.76484
1.77353
1.70953
1.69176
1.68681
1.68711
1.69009
1.69455
1.6999
1.70576
1.71192
1.71822
1.72459
1.73094
1.73725
1.74347
1.74958
1.75559
1.76146
1.76721
1.77283
1.77832
1.78369
1.78893
1.79405
1.79907
1.80397
1.80877
1.81347
1.81811
1.82259
1.82717
1.83125
1.83627
1.8616
-0
-0
-0
-0
-0
-0
-0
0.133651
0.250009
0.399383
0.577321
0.787315
1.01665
1.24189
1.43564
1.4993
1.51935
1.53536
1.55033
1.56473
1.57864
1.59204
1.6049
1.6172
1.62893
1.6401
1.65071
1.66076
1.67301
1.68969
1.70513
1.71936
1.73241
1.74431
1.7551
1.76484
1.77353
1.70953
1.69176
1.68681
1.68711
1.69009
1.69455
1.6999
1.70576
1.71192
1.71822
1.72459
1.73094
1.73725
1.74347
1.74958
1.75559
1.76146
1.76721
1.77283
1.77832
1.78369
1.78893
1.79405
1.79907
1.80397
1.80877
1.81347
1.81811
1.82259
1.82717
1.83125
1.83627
1.8616
)
;
    }
}


// ************************************************************************* //
