/*--------------------------------*- C++ -*----------------------------------*\
| =========                 |                                                 |
| \\      /  F ield         | OpenFOAM: The Open Source CFD Toolbox           |
|  \\    /   O peration     | Version:  2406                                  |
|   \\  /    A nd           | Website:  www.openfoam.com                      |
|    \\/     M anipulation  |                                                 |
\*---------------------------------------------------------------------------*/
FoamFile
{
    version     2.0;
    format      ascii;
    arch        "LSB;label=32;scalar=64";
    class       volTensorField;
    location    "30/fluidRegion";
    object      Kd.liquid.structure;
}
// * * * * * * * * * * * * * * * * * * * * * * * * * * * * * * * * * * * * * //

dimensions      [1 -3 -1 0 0 0 0];

internalField   nonuniform List<tensor> 
70
(
(417.399 0 0 0 417.399 0 0 0 417.399)
(416.5 0 0 0 416.5 0 0 0 416.5)
(415.622 0 0 0 415.622 0 0 0 415.622)
(414.764 0 0 0 414.764 0 0 0 414.764)
(413.924 0 0 0 413.924 0 0 0 413.924)
(413.101 0 0 0 413.101 0 0 0 413.101)
(412.295 0 0 0 412.295 0 0 0 412.295)
(440.752 0 0 0 440.752 0 0 0 440.752)
(503.558 0 0 0 503.558 0 0 0 503.558)
(584.482 0 0 0 584.482 0 0 0 584.482)
(691.12 0 0 0 691.12 0 0 0 691.12)
(822.121 0 0 0 822.121 0 0 0 822.121)
(975.274 0 0 0 975.274 0 0 0 975.274)
(1145.09 0 0 0 1145.09 0 0 0 1145.09)
(1324.09 0 0 0 1324.09 0 0 0 1324.09)
(1498.27 0 0 0 1498.27 0 0 0 1498.27)
(1661.96 0 0 0 1661.96 0 0 0 1661.96)
(1815.88 0 0 0 1815.88 0 0 0 1815.88)
(1961.72 0 0 0 1961.72 0 0 0 1961.72)
(2100.79 0 0 0 2100.79 0 0 0 2100.79)
(2234.12 0 0 0 2234.12 0 0 0 2234.12)
(2362.51 0 0 0 2362.51 0 0 0 2362.51)
(2486.64 0 0 0 2486.64 0 0 0 2486.64)
(2607.03 0 0 0 2607.03 0 0 0 2607.03)
(2724.12 0 0 0 2724.12 0 0 0 2724.12)
(2838.29 0 0 0 2838.29 0 0 0 2838.29)
(2949.84 0 0 0 2949.84 0 0 0 2949.84)
(3059.04 0 0 0 3059.04 0 0 0 3059.04)
(3166.23 0 0 0 3166.23 0 0 0 3166.23)
(3271.86 0 0 0 3271.86 0 0 0 3271.86)
(3376.16 0 0 0 3376.16 0 0 0 3376.16)
(3479.24 0 0 0 3479.24 0 0 0 3479.24)
(3581.18 0 0 0 3581.18 0 0 0 3581.18)
(3682.02 0 0 0 3682.02 0 0 0 3682.02)
(3781.89 0 0 0 3781.89 0 0 0 3781.89)
(3880.53 0 0 0 3880.53 0 0 0 3880.53)
(3979.81 0 0 0 3979.81 0 0 0 3979.81)
(4163.5 0 0 0 4163.5 0 0 0 4163.5)
(4351.34 0 0 0 4351.34 0 0 0 4351.34)
(4540.37 0 0 0 4540.37 0 0 0 4540.37)
(4731.66 0 0 0 4731.66 0 0 0 4731.66)
(4925.49 0 0 0 4925.49 0 0 0 4925.49)
(5122.08 0 0 0 5122.08 0 0 0 5122.08)
(5321.57 0 0 0 5321.57 0 0 0 5321.57)
(5524.04 0 0 0 5524.04 0 0 0 5524.04)
(5729.57 0 0 0 5729.57 0 0 0 5729.57)
(5938.2 0 0 0 5938.2 0 0 0 5938.2)
(6149.97 0 0 0 6149.97 0 0 0 6149.97)
(6364.91 0 0 0 6364.91 0 0 0 6364.91)
(6583.04 0 0 0 6583.04 0 0 0 6583.04)
(6804.38 0 0 0 6804.38 0 0 0 6804.38)
(7028.96 0 0 0 7028.96 0 0 0 7028.96)
(7256.79 0 0 0 7256.79 0 0 0 7256.79)
(7487.89 0 0 0 7487.89 0 0 0 7487.89)
(7722.28 0 0 0 7722.28 0 0 0 7722.28)
(7959.98 0 0 0 7959.98 0 0 0 7959.98)
(8201.01 0 0 0 8201.01 0 0 0 8201.01)
(8445.4 0 0 0 8445.4 0 0 0 8445.4)
(8693.16 0 0 0 8693.16 0 0 0 8693.16)
(8944.33 0 0 0 8944.33 0 0 0 8944.33)
(9198.91 0 0 0 9198.91 0 0 0 9198.91)
(9457.01 0 0 0 9457.01 0 0 0 9457.01)
(9718.44 0 0 0 9718.44 0 0 0 9718.44)
(9983.8 0 0 0 9983.8 0 0 0 9983.8)
(10251.7 0 0 0 10251.7 0 0 0 10251.7)
(10525.8 0 0 0 10525.8 0 0 0 10525.8)
(10797 0 0 0 10797 0 0 0 10797)
(11088 0 0 0 11088 0 0 0 11088)
(11343.5 0 0 0 11343.5 0 0 0 11343.5)
(11698.8 0 0 0 11698.8 0 0 0 11698.8)
)
;

boundaryField
{
    inlet
    {
        type            zeroGradient;
    }
    outlet
    {
        type            zeroGradient;
    }
    fixedWalls
    {
        type            zeroGradient;
    }
}


// ************************************************************************* //
