/*--------------------------------*- C++ -*----------------------------------*\
| =========                 |                                                 |
| \\      /  F ield         | OpenFOAM: The Open Source CFD Toolbox           |
|  \\    /   O peration     | Version:  2406                                  |
|   \\  /    A nd           | Website:  www.openfoam.com                      |
|    \\/     M anipulation  |                                                 |
\*---------------------------------------------------------------------------*/
FoamFile
{
    version     2.0;
    format      ascii;
    arch        "LSB;label=32;scalar=64";
    class       volTensorField;
    location    "30/fluidRegion";
    object      KdTotU;
}
// * * * * * * * * * * * * * * * * * * * * * * * * * * * * * * * * * * * * * //

dimensions      [1 -2 -2 0 0 0 0];

internalField   nonuniform List<tensor> 
70
(
(538.429 0 0 0 538.429 0 0 0 538.429)
(538.056 0 0 0 538.056 0 0 0 538.056)
(537.786 0 0 0 537.786 0 0 0 537.786)
(537.617 0 0 0 537.617 0 0 0 537.617)
(537.546 0 0 0 537.546 0 0 0 537.546)
(537.571 0 0 0 537.571 0 0 0 537.571)
(537.689 0 0 0 537.689 0 0 0 537.689)
(577.742 0 0 0 577.742 0 0 0 577.742)
(666.616 0 0 0 666.616 0 0 0 666.616)
(784.657 0 0 0 784.657 0 0 0 784.657)
(945.313 0 0 0 945.313 0 0 0 945.313)
(1151.33 0 0 0 1151.33 0 0 0 1151.33)
(1404.82 0 0 0 1404.82 0 0 0 1404.82)
(1702.74 0 0 0 1702.74 0 0 0 1702.74)
(2036.82 0 0 0 2036.82 0 0 0 2036.82)
(2383.67 0 0 0 2383.67 0 0 0 2383.67)
(2729.22 0 0 0 2729.22 0 0 0 2729.22)
(3071.18 0 0 0 3071.18 0 0 0 3071.18)
(3410.02 0 0 0 3410.02 0 0 0 3410.02)
(3746.18 0 0 0 3746.18 0 0 0 3746.18)
(4079.91 0 0 0 4079.91 0 0 0 4079.91)
(4411.42 0 0 0 4411.42 0 0 0 4411.42)
(4740.79 0 0 0 4740.79 0 0 0 4740.79)
(5068.09 0 0 0 5068.09 0 0 0 5068.09)
(5393.33 0 0 0 5393.33 0 0 0 5393.33)
(5716.5 0 0 0 5716.5 0 0 0 5716.5)
(6037.59 0 0 0 6037.59 0 0 0 6037.59)
(6356.56 0 0 0 6356.56 0 0 0 6356.56)
(6673.67 0 0 0 6673.67 0 0 0 6673.67)
(6989.59 0 0 0 6989.59 0 0 0 6989.59)
(7304.52 0 0 0 7304.52 0 0 0 7304.52)
(7618.25 0 0 0 7618.25 0 0 0 7618.25)
(7930.57 0 0 0 7930.57 0 0 0 7930.57)
(8241.26 0 0 0 8241.26 0 0 0 8241.26)
(8550.13 0 0 0 8550.13 0 0 0 8550.13)
(8857.07 0 0 0 8857.07 0 0 0 8857.07)
(9161.6 0 0 0 9161.6 0 0 0 9161.6)
(9648.34 0 0 0 9648.34 0 0 0 9648.34)
(10135.4 0 0 0 10135.4 0 0 0 10135.4)
(10622.4 0 0 0 10622.4 0 0 0 10622.4)
(11113 0 0 0 11113 0 0 0 11113)
(11607.9 0 0 0 11607.9 0 0 0 11607.9)
(12107.6 0 0 0 12107.6 0 0 0 12107.6)
(12612.2 0 0 0 12612.2 0 0 0 12612.2)
(13121.6 0 0 0 13121.6 0 0 0 13121.6)
(13635.6 0 0 0 13635.6 0 0 0 13635.6)
(14154.1 0 0 0 14154.1 0 0 0 14154.1)
(14676.8 0 0 0 14676.8 0 0 0 14676.8)
(15203.5 0 0 0 15203.5 0 0 0 15203.5)
(15734.1 0 0 0 15734.1 0 0 0 15734.1)
(16268.3 0 0 0 16268.3 0 0 0 16268.3)
(16805.8 0 0 0 16805.8 0 0 0 16805.8)
(17346.4 0 0 0 17346.4 0 0 0 17346.4)
(17889.9 0 0 0 17889.9 0 0 0 17889.9)
(18436.1 0 0 0 18436.1 0 0 0 18436.1)
(18984.8 0 0 0 18984.8 0 0 0 18984.8)
(19535.8 0 0 0 19535.8 0 0 0 19535.8)
(20088.8 0 0 0 20088.8 0 0 0 20088.8)
(20643.8 0 0 0 20643.8 0 0 0 20643.8)
(21200.4 0 0 0 21200.4 0 0 0 21200.4)
(21758.6 0 0 0 21758.6 0 0 0 21758.6)
(22318.2 0 0 0 22318.2 0 0 0 22318.2)
(22878.7 0 0 0 22878.7 0 0 0 22878.7)
(23441.3 0 0 0 23441.3 0 0 0 23441.3)
(24001.9 0 0 0 24001.9 0 0 0 24001.9)
(24570.5 0 0 0 24570.5 0 0 0 24570.5)
(25122 0 0 0 25122 0 0 0 25122)
(25717.3 0 0 0 25717.3 0 0 0 25717.3)
(26208.2 0 0 0 26208.2 0 0 0 26208.2)
(26954 0 0 0 26954 0 0 0 26954)
)
;

boundaryField
{
    inlet
    {
        type            zeroGradient;
    }
    outlet
    {
        type            zeroGradient;
    }
    fixedWalls
    {
        type            zeroGradient;
    }
}


// ************************************************************************* //
