/*--------------------------------*- C++ -*----------------------------------*\
| =========                 |                                                 |
| \\      /  F ield         | OpenFOAM: The Open Source CFD Toolbox           |
|  \\    /   O peration     | Version:  2406                                  |
|   \\  /    A nd           | Website:  www.openfoam.com                      |
|    \\/     M anipulation  |                                                 |
\*---------------------------------------------------------------------------*/
FoamFile
{
    version     2.0;
    format      ascii;
    arch        "LSB;label=32;scalar=64";
    class       volScalarField;
    location    "30/fluidRegion";
    object      p;
}
// * * * * * * * * * * * * * * * * * * * * * * * * * * * * * * * * * * * * * //

dimensions      [1 -1 -2 0 0 0 0];

internalField   nonuniform List<scalar> 
70
(
7.2901e+06
7.28963e+06
7.28917e+06
7.2887e+06
7.28824e+06
7.28778e+06
7.28732e+06
7.28685e+06
7.28638e+06
7.2859e+06
7.2854e+06
7.28489e+06
7.28435e+06
7.28378e+06
7.28319e+06
7.28256e+06
7.28191e+06
7.28123e+06
7.28052e+06
7.27978e+06
7.27902e+06
7.27822e+06
7.2774e+06
7.27655e+06
7.27567e+06
7.27475e+06
7.27381e+06
7.27284e+06
7.27183e+06
7.2708e+06
7.26973e+06
7.26863e+06
7.2675e+06
7.26634e+06
7.26515e+06
7.26393e+06
7.26267e+06
7.26137e+06
7.26003e+06
7.25863e+06
7.25718e+06
7.25568e+06
7.25413e+06
7.25252e+06
7.25085e+06
7.24913e+06
7.24736e+06
7.24552e+06
7.24363e+06
7.24168e+06
7.23968e+06
7.23761e+06
7.23548e+06
7.2333e+06
7.23105e+06
7.22875e+06
7.22638e+06
7.22395e+06
7.22146e+06
7.21891e+06
7.21629e+06
7.21362e+06
7.21088e+06
7.20808e+06
7.20521e+06
7.20228e+06
7.19929e+06
7.19624e+06
7.19313e+06
7.18994e+06
)
;

boundaryField
{
    inlet
    {
        type            calculated;
        value           uniform 7.29033e+06;
    }
    outlet
    {
        type            calculated;
        value           uniform 7.18831e+06;
    }
    fixedWalls
    {
        type            calculated;
        value           nonuniform List<scalar> 
280
(
7.2901e+06
7.28963e+06
7.28917e+06
7.2887e+06
7.28824e+06
7.28778e+06
7.28732e+06
7.28685e+06
7.28638e+06
7.2859e+06
7.2854e+06
7.28489e+06
7.28435e+06
7.28378e+06
7.28319e+06
7.28256e+06
7.28191e+06
7.28123e+06
7.28052e+06
7.27978e+06
7.27902e+06
7.27822e+06
7.2774e+06
7.27655e+06
7.27567e+06
7.27475e+06
7.27381e+06
7.27284e+06
7.27183e+06
7.2708e+06
7.26973e+06
7.26863e+06
7.2675e+06
7.26634e+06
7.26515e+06
7.26393e+06
7.26267e+06
7.26137e+06
7.26003e+06
7.25863e+06
7.25718e+06
7.25568e+06
7.25413e+06
7.25252e+06
7.25085e+06
7.24913e+06
7.24736e+06
7.24552e+06
7.24363e+06
7.24168e+06
7.23968e+06
7.23761e+06
7.23548e+06
7.2333e+06
7.23105e+06
7.22875e+06
7.22638e+06
7.22395e+06
7.22146e+06
7.21891e+06
7.21629e+06
7.21362e+06
7.21088e+06
7.20808e+06
7.20521e+06
7.20228e+06
7.19929e+06
7.19624e+06
7.19313e+06
7.18994e+06
7.2901e+06
7.28963e+06
7.28917e+06
7.2887e+06
7.28824e+06
7.28778e+06
7.28732e+06
7.28685e+06
7.28638e+06
7.2859e+06
7.2854e+06
7.28489e+06
7.28435e+06
7.28378e+06
7.28319e+06
7.28256e+06
7.28191e+06
7.28123e+06
7.28052e+06
7.27978e+06
7.27902e+06
7.27822e+06
7.2774e+06
7.27655e+06
7.27567e+06
7.27475e+06
7.27381e+06
7.27284e+06
7.27183e+06
7.2708e+06
7.26973e+06
7.26863e+06
7.2675e+06
7.26634e+06
7.26515e+06
7.26393e+06
7.26267e+06
7.26137e+06
7.26003e+06
7.25863e+06
7.25718e+06
7.25568e+06
7.25413e+06
7.25252e+06
7.25085e+06
7.24913e+06
7.24736e+06
7.24552e+06
7.24363e+06
7.24168e+06
7.23968e+06
7.23761e+06
7.23548e+06
7.2333e+06
7.23105e+06
7.22875e+06
7.22638e+06
7.22395e+06
7.22146e+06
7.21891e+06
7.21629e+06
7.21362e+06
7.21088e+06
7.20808e+06
7.20521e+06
7.20228e+06
7.19929e+06
7.19624e+06
7.19313e+06
7.18994e+06
7.2901e+06
7.28963e+06
7.28917e+06
7.2887e+06
7.28824e+06
7.28778e+06
7.28732e+06
7.28685e+06
7.28638e+06
7.2859e+06
7.2854e+06
7.28489e+06
7.28435e+06
7.28378e+06
7.28319e+06
7.28256e+06
7.28191e+06
7.28123e+06
7.28052e+06
7.27978e+06
7.27902e+06
7.27822e+06
7.2774e+06
7.27655e+06
7.27567e+06
7.27475e+06
7.27381e+06
7.27284e+06
7.27183e+06
7.2708e+06
7.26973e+06
7.26863e+06
7.2675e+06
7.26634e+06
7.26515e+06
7.26393e+06
7.26267e+06
7.26137e+06
7.26003e+06
7.25863e+06
7.25718e+06
7.25568e+06
7.25413e+06
7.25252e+06
7.25085e+06
7.24913e+06
7.24736e+06
7.24552e+06
7.24363e+06
7.24168e+06
7.23968e+06
7.23761e+06
7.23548e+06
7.2333e+06
7.23105e+06
7.22875e+06
7.22638e+06
7.22395e+06
7.22146e+06
7.21891e+06
7.21629e+06
7.21362e+06
7.21088e+06
7.20808e+06
7.20521e+06
7.20228e+06
7.19929e+06
7.19624e+06
7.19313e+06
7.18994e+06
7.2901e+06
7.28963e+06
7.28917e+06
7.2887e+06
7.28824e+06
7.28778e+06
7.28732e+06
7.28685e+06
7.28638e+06
7.2859e+06
7.2854e+06
7.28489e+06
7.28435e+06
7.28378e+06
7.28319e+06
7.28256e+06
7.28191e+06
7.28123e+06
7.28052e+06
7.27978e+06
7.27902e+06
7.27822e+06
7.2774e+06
7.27655e+06
7.27567e+06
7.27475e+06
7.27381e+06
7.27284e+06
7.27183e+06
7.2708e+06
7.26973e+06
7.26863e+06
7.2675e+06
7.26634e+06
7.26515e+06
7.26393e+06
7.26267e+06
7.26137e+06
7.26003e+06
7.25863e+06
7.25718e+06
7.25568e+06
7.25413e+06
7.25252e+06
7.25085e+06
7.24913e+06
7.24736e+06
7.24552e+06
7.24363e+06
7.24168e+06
7.23968e+06
7.23761e+06
7.23548e+06
7.2333e+06
7.23105e+06
7.22875e+06
7.22638e+06
7.22395e+06
7.22146e+06
7.21891e+06
7.21629e+06
7.21362e+06
7.21088e+06
7.20808e+06
7.20521e+06
7.20228e+06
7.19929e+06
7.19624e+06
7.19313e+06
7.18994e+06
)
;
    }
}


// ************************************************************************* //
