/*--------------------------------*- C++ -*----------------------------------*\
| =========                 |                                                 |
| \\      /  F ield         | OpenFOAM: The Open Source CFD Toolbox           |
|  \\    /   O peration     | Version:  2406                                  |
|   \\  /    A nd           | Website:  www.openfoam.com                      |
|    \\/     M anipulation  |                                                 |
\*---------------------------------------------------------------------------*/
FoamFile
{
    version     2.0;
    format      ascii;
    arch        "LSB;label=32;scalar=64";
    class       volScalarField;
    location    "30/fluidRegion";
    object      p_rgh;
}
// * * * * * * * * * * * * * * * * * * * * * * * * * * * * * * * * * * * * * //

dimensions      [1 -1 -2 0 0 0 0];

internalField   nonuniform List<scalar> 
70
(
7.2903e+06
7.29024e+06
7.29018e+06
7.29012e+06
7.29005e+06
7.28999e+06
7.28992e+06
7.28984e+06
7.28972e+06
7.28957e+06
7.28937e+06
7.28912e+06
7.2888e+06
7.28842e+06
7.28799e+06
7.28752e+06
7.28701e+06
7.28646e+06
7.28589e+06
7.28529e+06
7.28466e+06
7.28399e+06
7.28329e+06
7.28256e+06
7.2818e+06
7.28101e+06
7.28018e+06
7.27933e+06
7.27844e+06
7.27751e+06
7.27656e+06
7.27557e+06
7.27455e+06
7.27349e+06
7.27241e+06
7.27128e+06
7.27014e+06
7.26896e+06
7.26774e+06
7.26647e+06
7.26515e+06
7.26378e+06
7.26235e+06
7.26086e+06
7.25933e+06
7.25773e+06
7.25608e+06
7.25438e+06
7.25261e+06
7.25079e+06
7.24891e+06
7.24697e+06
7.24497e+06
7.24291e+06
7.24079e+06
7.23861e+06
7.23636e+06
7.23406e+06
7.2317e+06
7.22927e+06
7.22678e+06
7.22423e+06
7.22162e+06
7.21894e+06
7.21621e+06
7.21341e+06
7.21054e+06
7.20761e+06
7.20463e+06
7.20155e+06
)
;

boundaryField
{
    inlet
    {
        type            fixedFluxPressure;
        gradient        uniform 1065.37;
        value           uniform 7.29033e+06;
    }
    outlet
    {
        type            fixedValue;
        value           uniform 7.2e+06;
    }
    fixedWalls
    {
        type            fixedFluxPressure;
        gradient        nonuniform List<scalar> 
280
(
0
0
0
0
0
0
0
0
0
0
0
8.65359e-17
-5.15912e-18
-5.75926e-17
-8.66101e-17
6.08263e-18
1.58549e-16
-5.07272e-18
-1.62743e-16
1.76995e-16
6.80951e-17
-3.27257e-16
1.75686e-16
3.2363e-16
-1.63469e-16
-1.58456e-16
1.23445e-18
1.62937e-16
-7.55609e-18
6.1454e-18
1.64577e-16
-1.73412e-16
-1.64484e-16
0
-1.71457e-16
5.58532e-18
-4.54397e-18
1.80387e-16
1.62523e-16
-3.382e-16
5.30073e-18
3.38053e-16
-1.78212e-16
-1.66612e-16
5.05976e-16
-3.48548e-16
-3.36293e-16
6.78826e-16
-9.80871e-22
-3.40788e-16
0
3.37438e-16
4.86955e-22
-3.34409e-16
3.43493e-16
-9.73097e-18
-3.40762e-16
3.3873e-16
1.9333e-21
-6.82225e-16
3.54286e-16
3.24565e-16
-6.7556e-16
9.46596e-18
3.40483e-16
-3.40182e-16
-3.8413e-21
3.38277e-16
0
0
0
0
0
0
0
0
0
0
0
0
0
-8.65359e-17
5.15912e-18
5.75926e-17
8.66101e-17
-6.08263e-18
-1.58549e-16
5.07272e-18
1.62743e-16
-1.76995e-16
-6.80951e-17
3.27257e-16
-1.75686e-16
-3.2363e-16
1.63469e-16
1.58456e-16
-1.23445e-18
-1.62937e-16
7.55609e-18
-6.1454e-18
-1.64577e-16
1.73412e-16
1.64484e-16
0
1.71457e-16
-5.58532e-18
4.54397e-18
-1.80387e-16
-1.62523e-16
3.382e-16
-5.30073e-18
-3.38053e-16
1.78212e-16
1.66612e-16
-5.05976e-16
3.48548e-16
3.36293e-16
-6.78826e-16
9.80871e-22
3.40788e-16
0
-3.37438e-16
-4.86955e-22
3.34409e-16
-3.43493e-16
9.73097e-18
3.40762e-16
-3.3873e-16
-1.9333e-21
6.82225e-16
-3.54286e-16
-3.24565e-16
6.7556e-16
-9.46596e-18
-3.40483e-16
3.40182e-16
3.8413e-21
-3.38277e-16
0
0
0
0
0
0
0
0
0
0
0
0
0
8.65359e-17
-5.15912e-18
-5.75926e-17
-8.66101e-17
6.08263e-18
1.58549e-16
-5.07272e-18
-1.62743e-16
1.76995e-16
6.80951e-17
-3.27257e-16
1.75686e-16
3.2363e-16
-1.63469e-16
-1.58456e-16
1.23445e-18
1.62937e-16
-7.55609e-18
6.1454e-18
1.64577e-16
-1.73412e-16
-1.64484e-16
0
-1.71457e-16
5.58532e-18
-4.54397e-18
1.80387e-16
1.62523e-16
-3.382e-16
5.30073e-18
3.38053e-16
-1.78212e-16
-1.66612e-16
5.05976e-16
-3.48548e-16
-3.36293e-16
6.78826e-16
-9.80871e-22
-3.40788e-16
0
3.37438e-16
4.86955e-22
-3.34409e-16
3.43493e-16
-9.73097e-18
-3.40762e-16
3.3873e-16
1.9333e-21
-6.82225e-16
3.54286e-16
3.24565e-16
-6.7556e-16
9.46596e-18
3.40483e-16
-3.40182e-16
-3.8413e-21
3.38277e-16
0
0
0
0
0
0
0
0
0
0
0
0
0
-8.65359e-17
5.15912e-18
5.75926e-17
8.66101e-17
-6.08263e-18
-1.58549e-16
5.07272e-18
1.62743e-16
-1.76995e-16
-6.80951e-17
3.27257e-16
-1.75686e-16
-3.2363e-16
1.63469e-16
1.58456e-16
-1.23445e-18
-1.62937e-16
7.55609e-18
-6.1454e-18
-1.64577e-16
1.73412e-16
1.64484e-16
0
1.71457e-16
-5.58532e-18
4.54397e-18
-1.80387e-16
-1.62523e-16
3.382e-16
-5.30073e-18
-3.38053e-16
1.78212e-16
1.66612e-16
-5.05976e-16
3.48548e-16
3.36293e-16
-6.78826e-16
9.80871e-22
3.40788e-16
0
-3.37438e-16
-4.86955e-22
3.34409e-16
-3.43493e-16
9.73097e-18
3.40762e-16
-3.3873e-16
-1.9333e-21
6.82225e-16
-3.54286e-16
-3.24565e-16
6.7556e-16
-9.46596e-18
-3.40483e-16
3.40182e-16
3.8413e-21
-3.38277e-16
0
0
)
;
        value           nonuniform List<scalar> 
280
(
7.2903e+06
7.29024e+06
7.29018e+06
7.29012e+06
7.29005e+06
7.28999e+06
7.28992e+06
7.28984e+06
7.28972e+06
7.28957e+06
7.28937e+06
7.28912e+06
7.2888e+06
7.28842e+06
7.28799e+06
7.28752e+06
7.28701e+06
7.28646e+06
7.28589e+06
7.28529e+06
7.28466e+06
7.28399e+06
7.28329e+06
7.28256e+06
7.2818e+06
7.28101e+06
7.28018e+06
7.27933e+06
7.27844e+06
7.27751e+06
7.27656e+06
7.27557e+06
7.27455e+06
7.27349e+06
7.27241e+06
7.27128e+06
7.27014e+06
7.26896e+06
7.26774e+06
7.26647e+06
7.26515e+06
7.26378e+06
7.26235e+06
7.26086e+06
7.25933e+06
7.25773e+06
7.25608e+06
7.25438e+06
7.25261e+06
7.25079e+06
7.24891e+06
7.24697e+06
7.24497e+06
7.24291e+06
7.24079e+06
7.23861e+06
7.23636e+06
7.23406e+06
7.2317e+06
7.22927e+06
7.22678e+06
7.22423e+06
7.22162e+06
7.21894e+06
7.21621e+06
7.21341e+06
7.21054e+06
7.20761e+06
7.20463e+06
7.20155e+06
7.2903e+06
7.29024e+06
7.29018e+06
7.29012e+06
7.29005e+06
7.28999e+06
7.28992e+06
7.28984e+06
7.28972e+06
7.28957e+06
7.28937e+06
7.28912e+06
7.2888e+06
7.28842e+06
7.28799e+06
7.28752e+06
7.28701e+06
7.28646e+06
7.28589e+06
7.28529e+06
7.28466e+06
7.28399e+06
7.28329e+06
7.28256e+06
7.2818e+06
7.28101e+06
7.28018e+06
7.27933e+06
7.27844e+06
7.27751e+06
7.27656e+06
7.27557e+06
7.27455e+06
7.27349e+06
7.27241e+06
7.27128e+06
7.27014e+06
7.26896e+06
7.26774e+06
7.26647e+06
7.26515e+06
7.26378e+06
7.26235e+06
7.26086e+06
7.25933e+06
7.25773e+06
7.25608e+06
7.25438e+06
7.25261e+06
7.25079e+06
7.24891e+06
7.24697e+06
7.24497e+06
7.24291e+06
7.24079e+06
7.23861e+06
7.23636e+06
7.23406e+06
7.2317e+06
7.22927e+06
7.22678e+06
7.22423e+06
7.22162e+06
7.21894e+06
7.21621e+06
7.21341e+06
7.21054e+06
7.20761e+06
7.20463e+06
7.20155e+06
7.2903e+06
7.29024e+06
7.29018e+06
7.29012e+06
7.29005e+06
7.28999e+06
7.28992e+06
7.28984e+06
7.28972e+06
7.28957e+06
7.28937e+06
7.28912e+06
7.2888e+06
7.28842e+06
7.28799e+06
7.28752e+06
7.28701e+06
7.28646e+06
7.28589e+06
7.28529e+06
7.28466e+06
7.28399e+06
7.28329e+06
7.28256e+06
7.2818e+06
7.28101e+06
7.28018e+06
7.27933e+06
7.27844e+06
7.27751e+06
7.27656e+06
7.27557e+06
7.27455e+06
7.27349e+06
7.27241e+06
7.27128e+06
7.27014e+06
7.26896e+06
7.26774e+06
7.26647e+06
7.26515e+06
7.26378e+06
7.26235e+06
7.26086e+06
7.25933e+06
7.25773e+06
7.25608e+06
7.25438e+06
7.25261e+06
7.25079e+06
7.24891e+06
7.24697e+06
7.24497e+06
7.24291e+06
7.24079e+06
7.23861e+06
7.23636e+06
7.23406e+06
7.2317e+06
7.22927e+06
7.22678e+06
7.22423e+06
7.22162e+06
7.21894e+06
7.21621e+06
7.21341e+06
7.21054e+06
7.20761e+06
7.20463e+06
7.20155e+06
7.2903e+06
7.29024e+06
7.29018e+06
7.29012e+06
7.29005e+06
7.28999e+06
7.28992e+06
7.28984e+06
7.28972e+06
7.28957e+06
7.28937e+06
7.28912e+06
7.2888e+06
7.28842e+06
7.28799e+06
7.28752e+06
7.28701e+06
7.28646e+06
7.28589e+06
7.28529e+06
7.28466e+06
7.28399e+06
7.28329e+06
7.28256e+06
7.2818e+06
7.28101e+06
7.28018e+06
7.27933e+06
7.27844e+06
7.27751e+06
7.27656e+06
7.27557e+06
7.27455e+06
7.27349e+06
7.27241e+06
7.27128e+06
7.27014e+06
7.26896e+06
7.26774e+06
7.26647e+06
7.26515e+06
7.26378e+06
7.26235e+06
7.26086e+06
7.25933e+06
7.25773e+06
7.25608e+06
7.25438e+06
7.25261e+06
7.25079e+06
7.24891e+06
7.24697e+06
7.24497e+06
7.24291e+06
7.24079e+06
7.23861e+06
7.23636e+06
7.23406e+06
7.2317e+06
7.22927e+06
7.22678e+06
7.22423e+06
7.22162e+06
7.21894e+06
7.21621e+06
7.21341e+06
7.21054e+06
7.20761e+06
7.20463e+06
7.20155e+06
)
;
    }
}


// ************************************************************************* //
