/*--------------------------------*- C++ -*----------------------------------*\
| =========                 |                                                 |
| \\      /  F ield         | OpenFOAM: The Open Source CFD Toolbox           |
|  \\    /   O peration     | Version:  2406                                  |
|   \\  /    A nd           | Website:  www.openfoam.com                      |
|    \\/     M anipulation  |                                                 |
\*---------------------------------------------------------------------------*/
FoamFile
{
    version     2.0;
    format      ascii;
    arch        "LSB;label=32;scalar=64";
    class       volScalarField;
    location    "0.6/fluidRegion";
    object      dgdt.vapour;
}
// * * * * * * * * * * * * * * * * * * * * * * * * * * * * * * * * * * * * * //

dimensions      [0 0 -1 0 0 0 0];

internalField   nonuniform List<scalar> 
70
(
-0
-0
-0
-0
-0
-0
-0
-0
-0
-0
-0
-0
-0
-0
-0
-0
-0
-0
-0
-0
-0
-0
-0
-0
5.76878e-16
-4.40681e-14
-2.16562e-13
-2.26026e-13
-2.42148e-13
-3.64997e-13
-5.16646e-13
-6.89588e-13
-8.70325e-13
-1.03773e-12
0.195762
0.494949
0.755309
0.987145
1.19544
1.38078
1.54624
1.69306
1.82033
1.92415
1.9911
2.03897
2.08027
2.11471
2.14114
2.15903
2.16755
2.16535
2.152
2.1271
2.09041
2.04182
1.98133
1.90909
1.86528
1.78672
1.67868
1.55172
1.41148
1.2611
1.10251
0.936684
0.763733
0.571797
0.370469
0.165121
)
;

boundaryField
{
    inlet
    {
        type            calculated;
        value           uniform -0;
    }
    outlet
    {
        type            calculated;
        value           uniform 0.165121;
    }
    fixedWalls
    {
        type            calculated;
        value           nonuniform List<scalar> 
280
(
-0
-0
-0
-0
-0
-0
-0
-0
-0
-0
-0
-0
-0
-0
-0
-0
-0
-0
-0
-0
-0
-0
-0
-0
5.76878e-16
-4.40681e-14
-2.16562e-13
-2.26026e-13
-2.42148e-13
-3.64997e-13
-5.16646e-13
-6.89588e-13
-8.70325e-13
-1.03773e-12
0.195762
0.494949
0.755309
0.987145
1.19544
1.38078
1.54624
1.69306
1.82033
1.92415
1.9911
2.03897
2.08027
2.11471
2.14114
2.15903
2.16755
2.16535
2.152
2.1271
2.09041
2.04182
1.98133
1.90909
1.86528
1.78672
1.67868
1.55172
1.41148
1.2611
1.10251
0.936684
0.763733
0.571797
0.370469
0.165121
-0
-0
-0
-0
-0
-0
-0
-0
-0
-0
-0
-0
-0
-0
-0
-0
-0
-0
-0
-0
-0
-0
-0
-0
5.76878e-16
-4.40681e-14
-2.16562e-13
-2.26026e-13
-2.42148e-13
-3.64997e-13
-5.16646e-13
-6.89588e-13
-8.70325e-13
-1.03773e-12
0.195762
0.494949
0.755309
0.987145
1.19544
1.38078
1.54624
1.69306
1.82033
1.92415
1.9911
2.03897
2.08027
2.11471
2.14114
2.15903
2.16755
2.16535
2.152
2.1271
2.09041
2.04182
1.98133
1.90909
1.86528
1.78672
1.67868
1.55172
1.41148
1.2611
1.10251
0.936684
0.763733
0.571797
0.370469
0.165121
-0
-0
-0
-0
-0
-0
-0
-0
-0
-0
-0
-0
-0
-0
-0
-0
-0
-0
-0
-0
-0
-0
-0
-0
5.76878e-16
-4.40681e-14
-2.16562e-13
-2.26026e-13
-2.42148e-13
-3.64997e-13
-5.16646e-13
-6.89588e-13
-8.70325e-13
-1.03773e-12
0.195762
0.494949
0.755309
0.987145
1.19544
1.38078
1.54624
1.69306
1.82033
1.92415
1.9911
2.03897
2.08027
2.11471
2.14114
2.15903
2.16755
2.16535
2.152
2.1271
2.09041
2.04182
1.98133
1.90909
1.86528
1.78672
1.67868
1.55172
1.41148
1.2611
1.10251
0.936684
0.763733
0.571797
0.370469
0.165121
-0
-0
-0
-0
-0
-0
-0
-0
-0
-0
-0
-0
-0
-0
-0
-0
-0
-0
-0
-0
-0
-0
-0
-0
5.76878e-16
-4.40681e-14
-2.16562e-13
-2.26026e-13
-2.42148e-13
-3.64997e-13
-5.16646e-13
-6.89588e-13
-8.70325e-13
-1.03773e-12
0.195762
0.494949
0.755309
0.987145
1.19544
1.38078
1.54624
1.69306
1.82033
1.92415
1.9911
2.03897
2.08027
2.11471
2.14114
2.15903
2.16755
2.16535
2.152
2.1271
2.09041
2.04182
1.98133
1.90909
1.86528
1.78672
1.67868
1.55172
1.41148
1.2611
1.10251
0.936684
0.763733
0.571797
0.370469
0.165121
)
;
    }
}


// ************************************************************************* //
