/*--------------------------------*- C++ -*----------------------------------*\
| =========                 |                                                 |
| \\      /  F ield         | OpenFOAM: The Open Source CFD Toolbox           |
|  \\    /   O peration     | Version:  2406                                  |
|   \\  /    A nd           | Website:  www.openfoam.com                      |
|    \\/     M anipulation  |                                                 |
\*---------------------------------------------------------------------------*/
FoamFile
{
    version     2.0;
    format      ascii;
    arch        "LSB;label=32;scalar=64";
    class       volTensorField;
    location    "0.6/fluidRegion";
    object      Kd.liquid.structure;
}
// * * * * * * * * * * * * * * * * * * * * * * * * * * * * * * * * * * * * * //

dimensions      [1 -3 -1 0 0 0 0];

internalField   nonuniform List<tensor> 
70
(
(738.704 0 0 0 738.704 0 0 0 738.704)
(738.589 0 0 0 738.589 0 0 0 738.589)
(738.446 0 0 0 738.446 0 0 0 738.446)
(738.274 0 0 0 738.274 0 0 0 738.274)
(738.073 0 0 0 738.073 0 0 0 738.073)
(737.845 0 0 0 737.845 0 0 0 737.845)
(737.589 0 0 0 737.589 0 0 0 737.589)
(737.305 0 0 0 737.305 0 0 0 737.305)
(736.995 0 0 0 736.995 0 0 0 736.995)
(736.659 0 0 0 736.659 0 0 0 736.659)
(736.297 0 0 0 736.297 0 0 0 736.297)
(735.91 0 0 0 735.91 0 0 0 735.91)
(735.499 0 0 0 735.499 0 0 0 735.499)
(735.065 0 0 0 735.065 0 0 0 735.065)
(734.608 0 0 0 734.608 0 0 0 734.608)
(734.13 0 0 0 734.13 0 0 0 734.13)
(733.63 0 0 0 733.63 0 0 0 733.63)
(733.11 0 0 0 733.11 0 0 0 733.11)
(732.572 0 0 0 732.572 0 0 0 732.572)
(732.015 0 0 0 732.015 0 0 0 732.015)
(731.441 0 0 0 731.441 0 0 0 731.441)
(730.851 0 0 0 730.851 0 0 0 730.851)
(730.246 0 0 0 730.246 0 0 0 730.246)
(729.627 0 0 0 729.627 0 0 0 729.627)
(728.996 0 0 0 728.996 0 0 0 728.996)
(728.353 0 0 0 728.353 0 0 0 728.353)
(727.699 0 0 0 727.699 0 0 0 727.699)
(727.037 0 0 0 727.037 0 0 0 727.037)
(726.366 0 0 0 726.366 0 0 0 726.366)
(725.689 0 0 0 725.689 0 0 0 725.689)
(725.007 0 0 0 725.007 0 0 0 725.007)
(724.321 0 0 0 724.321 0 0 0 724.321)
(723.632 0 0 0 723.632 0 0 0 723.632)
(722.942 0 0 0 722.942 0 0 0 722.942)
(737.36 0 0 0 737.36 0 0 0 737.36)
(768.361 0 0 0 768.361 0 0 0 768.361)
(812.353 0 0 0 812.353 0 0 0 812.353)
(866.331 0 0 0 866.331 0 0 0 866.331)
(927.073 0 0 0 927.073 0 0 0 927.073)
(993.991 0 0 0 993.991 0 0 0 993.991)
(1065.7 0 0 0 1065.7 0 0 0 1065.7)
(1141 0 0 0 1141 0 0 0 1141)
(1218.83 0 0 0 1218.83 0 0 0 1218.83)
(1298.09 0 0 0 1298.09 0 0 0 1298.09)
(1377.36 0 0 0 1377.36 0 0 0 1377.36)
(1455.89 0 0 0 1455.89 0 0 0 1455.89)
(1533.45 0 0 0 1533.45 0 0 0 1533.45)
(1609.91 0 0 0 1609.91 0 0 0 1609.91)
(1685.12 0 0 0 1685.12 0 0 0 1685.12)
(1758.9 0 0 0 1758.9 0 0 0 1758.9)
(1831.06 0 0 0 1831.06 0 0 0 1831.06)
(1901.39 0 0 0 1901.39 0 0 0 1901.39)
(1969.68 0 0 0 1969.68 0 0 0 1969.68)
(2035.71 0 0 0 2035.71 0 0 0 2035.71)
(2099.27 0 0 0 2099.27 0 0 0 2099.27)
(2160.16 0 0 0 2160.16 0 0 0 2160.16)
(2218.18 0 0 0 2218.18 0 0 0 2218.18)
(2273.18 0 0 0 2273.18 0 0 0 2273.18)
(2325.84 0 0 0 2325.84 0 0 0 2325.84)
(2375.72 0 0 0 2375.72 0 0 0 2375.72)
(2422.08 0 0 0 2422.08 0 0 0 2422.08)
(2464.5 0 0 0 2464.5 0 0 0 2464.5)
(2502.72 0 0 0 2502.72 0 0 0 2502.72)
(2536.59 0 0 0 2536.59 0 0 0 2536.59)
(2566.03 0 0 0 2566.03 0 0 0 2566.03)
(2590.95 0 0 0 2590.95 0 0 0 2590.95)
(2611.26 0 0 0 2611.26 0 0 0 2611.26)
(2626.62 0 0 0 2626.62 0 0 0 2626.62)
(2636.8 0 0 0 2636.8 0 0 0 2636.8)
(2641.62 0 0 0 2641.62 0 0 0 2641.62)
)
;

boundaryField
{
    inlet
    {
        type            zeroGradient;
    }
    outlet
    {
        type            zeroGradient;
    }
    fixedWalls
    {
        type            zeroGradient;
    }
}


// ************************************************************************* //
