/*--------------------------------*- C++ -*----------------------------------*\
| =========                 |                                                 |
| \\      /  F ield         | OpenFOAM: The Open Source CFD Toolbox           |
|  \\    /   O peration     | Version:  2406                                  |
|   \\  /    A nd           | Website:  www.openfoam.com                      |
|    \\/     M anipulation  |                                                 |
\*---------------------------------------------------------------------------*/
FoamFile
{
    version     2.0;
    format      ascii;
    arch        "LSB;label=32;scalar=64";
    class       volTensorField;
    location    "0.6/fluidRegion";
    object      KdTotU;
}
// * * * * * * * * * * * * * * * * * * * * * * * * * * * * * * * * * * * * * //

dimensions      [1 -2 -2 0 0 0 0];

internalField   nonuniform List<tensor> 
70
(
(3300.13 0 0 0 3300.13 0 0 0 3300.13)
(3300.4 0 0 0 3300.4 0 0 0 3300.4)
(3301.01 0 0 0 3301.01 0 0 0 3301.01)
(3301.92 0 0 0 3301.92 0 0 0 3301.92)
(3303.12 0 0 0 3303.12 0 0 0 3303.12)
(3304.61 0 0 0 3304.61 0 0 0 3304.61)
(3306.38 0 0 0 3306.38 0 0 0 3306.38)
(3308.41 0 0 0 3308.41 0 0 0 3308.41)
(3310.72 0 0 0 3310.72 0 0 0 3310.72)
(3313.31 0 0 0 3313.31 0 0 0 3313.31)
(3316.15 0 0 0 3316.15 0 0 0 3316.15)
(3319.26 0 0 0 3319.26 0 0 0 3319.26)
(3322.63 0 0 0 3322.63 0 0 0 3322.63)
(3326.25 0 0 0 3326.25 0 0 0 3326.25)
(3330.12 0 0 0 3330.12 0 0 0 3330.12)
(3334.24 0 0 0 3334.24 0 0 0 3334.24)
(3338.6 0 0 0 3338.6 0 0 0 3338.6)
(3343.2 0 0 0 3343.2 0 0 0 3343.2)
(3348.02 0 0 0 3348.02 0 0 0 3348.02)
(3353.06 0 0 0 3353.06 0 0 0 3353.06)
(3358.32 0 0 0 3358.32 0 0 0 3358.32)
(3363.78 0 0 0 3363.78 0 0 0 3363.78)
(3369.43 0 0 0 3369.43 0 0 0 3369.43)
(3375.27 0 0 0 3375.27 0 0 0 3375.27)
(3381.29 0 0 0 3381.29 0 0 0 3381.29)
(3387.48 0 0 0 3387.48 0 0 0 3387.48)
(3393.81 0 0 0 3393.81 0 0 0 3393.81)
(3400.29 0 0 0 3400.29 0 0 0 3400.29)
(3406.9 0 0 0 3406.9 0 0 0 3406.9)
(3413.62 0 0 0 3413.62 0 0 0 3413.62)
(3420.45 0 0 0 3420.45 0 0 0 3420.45)
(3427.36 0 0 0 3427.36 0 0 0 3427.36)
(3434.35 0 0 0 3434.35 0 0 0 3434.35)
(3441.39 0 0 0 3441.39 0 0 0 3441.39)
(3522.74 0 0 0 3522.74 0 0 0 3522.74)
(3689.21 0 0 0 3689.21 0 0 0 3689.21)
(3925.23 0 0 0 3925.23 0 0 0 3925.23)
(4217.33 0 0 0 4217.33 0 0 0 4217.33)
(4550.74 0 0 0 4550.74 0 0 0 4550.74)
(4923.11 0 0 0 4923.11 0 0 0 4923.11)
(5328.33 0 0 0 5328.33 0 0 0 5328.33)
(5761.08 0 0 0 5761.08 0 0 0 5761.08)
(6216.36 0 0 0 6216.36 0 0 0 6216.36)
(6688.58 0 0 0 6688.58 0 0 0 6688.58)
(7169.96 0 0 0 7169.96 0 0 0 7169.96)
(7655.8 0 0 0 7655.8 0 0 0 7655.8)
(8144.4 0 0 0 8144.4 0 0 0 8144.4)
(8634.65 0 0 0 8634.65 0 0 0 8634.65)
(9125.17 0 0 0 9125.17 0 0 0 9125.17)
(9614.44 0 0 0 9614.44 0 0 0 9614.44)
(10100.8 0 0 0 10100.8 0 0 0 10100.8)
(10582.2 0 0 0 10582.2 0 0 0 10582.2)
(11056.7 0 0 0 11056.7 0 0 0 11056.7)
(11522.2 0 0 0 11522.2 0 0 0 11522.2)
(11976.5 0 0 0 11976.5 0 0 0 11976.5)
(12417.5 0 0 0 12417.5 0 0 0 12417.5)
(12843.1 0 0 0 12843.1 0 0 0 12843.1)
(13251.4 0 0 0 13251.4 0 0 0 13251.4)
(13646.1 0 0 0 13646.1 0 0 0 13646.1)
(14023.7 0 0 0 14023.7 0 0 0 14023.7)
(14378.5 0 0 0 14378.5 0 0 0 14378.5)
(14706.4 0 0 0 14706.4 0 0 0 14706.4)
(15004.7 0 0 0 15004.7 0 0 0 15004.7)
(15271.7 0 0 0 15271.7 0 0 0 15271.7)
(15505.8 0 0 0 15505.8 0 0 0 15505.8)
(15706 0 0 0 15706 0 0 0 15706)
(15870.8 0 0 0 15870.8 0 0 0 15870.8)
(15997.5 0 0 0 15997.5 0 0 0 15997.5)
(16083.9 0 0 0 16083.9 0 0 0 16083.9)
(16127.7 0 0 0 16127.7 0 0 0 16127.7)
)
;

boundaryField
{
    inlet
    {
        type            zeroGradient;
    }
    outlet
    {
        type            zeroGradient;
    }
    fixedWalls
    {
        type            zeroGradient;
    }
}


// ************************************************************************* //
