/*--------------------------------*- C++ -*----------------------------------*\
| =========                 |                                                 |
| \\      /  F ield         | OpenFOAM: The Open Source CFD Toolbox           |
|  \\    /   O peration     | Version:  2406                                  |
|   \\  /    A nd           | Website:  www.openfoam.com                      |
|    \\/     M anipulation  |                                                 |
\*---------------------------------------------------------------------------*/
FoamFile
{
    version     2.0;
    format      ascii;
    arch        "LSB;label=32;scalar=64";
    class       volScalarField;
    location    "0.6/fluidRegion";
    object      p;
}
// * * * * * * * * * * * * * * * * * * * * * * * * * * * * * * * * * * * * * //

dimensions      [1 -1 -2 0 0 0 0];

internalField   nonuniform List<scalar> 
70
(
1.47431e+07
1.4743e+07
1.47428e+07
1.47427e+07
1.47426e+07
1.47425e+07
1.47423e+07
1.47422e+07
1.47421e+07
1.47419e+07
1.47418e+07
1.47416e+07
1.47415e+07
1.47413e+07
1.47412e+07
1.47411e+07
1.47409e+07
1.47408e+07
1.47406e+07
1.47404e+07
1.47403e+07
1.47401e+07
1.474e+07
1.47398e+07
1.47397e+07
1.47395e+07
1.47393e+07
1.47392e+07
1.4739e+07
1.47388e+07
1.47387e+07
1.47385e+07
1.47383e+07
1.47382e+07
1.4738e+07
1.47378e+07
1.47376e+07
1.47373e+07
1.4737e+07
1.47367e+07
1.47364e+07
1.47361e+07
1.47357e+07
1.47353e+07
1.47349e+07
1.47344e+07
1.47339e+07
1.47335e+07
1.4733e+07
1.47325e+07
1.47319e+07
1.47314e+07
1.47308e+07
1.47302e+07
1.47297e+07
1.47291e+07
1.47284e+07
1.47278e+07
1.47272e+07
1.47265e+07
1.47259e+07
1.47252e+07
1.47246e+07
1.47239e+07
1.47233e+07
1.47226e+07
1.4722e+07
1.47213e+07
1.47207e+07
1.47201e+07
)
;

boundaryField
{
    inlet
    {
        type            calculated;
        value           uniform 1.47432e+07;
    }
    outlet
    {
        type            calculated;
        value           uniform 1.47198e+07;
    }
    fixedWalls
    {
        type            calculated;
        value           nonuniform List<scalar> 
280
(
1.47431e+07
1.4743e+07
1.47428e+07
1.47427e+07
1.47426e+07
1.47425e+07
1.47423e+07
1.47422e+07
1.47421e+07
1.47419e+07
1.47418e+07
1.47416e+07
1.47415e+07
1.47413e+07
1.47412e+07
1.47411e+07
1.47409e+07
1.47408e+07
1.47406e+07
1.47404e+07
1.47403e+07
1.47401e+07
1.474e+07
1.47398e+07
1.47397e+07
1.47395e+07
1.47393e+07
1.47392e+07
1.4739e+07
1.47388e+07
1.47387e+07
1.47385e+07
1.47383e+07
1.47382e+07
1.4738e+07
1.47378e+07
1.47376e+07
1.47373e+07
1.4737e+07
1.47367e+07
1.47364e+07
1.47361e+07
1.47357e+07
1.47353e+07
1.47349e+07
1.47344e+07
1.47339e+07
1.47335e+07
1.4733e+07
1.47325e+07
1.47319e+07
1.47314e+07
1.47308e+07
1.47302e+07
1.47297e+07
1.47291e+07
1.47284e+07
1.47278e+07
1.47272e+07
1.47265e+07
1.47259e+07
1.47252e+07
1.47246e+07
1.47239e+07
1.47233e+07
1.47226e+07
1.4722e+07
1.47213e+07
1.47207e+07
1.47201e+07
1.47431e+07
1.4743e+07
1.47428e+07
1.47427e+07
1.47426e+07
1.47425e+07
1.47423e+07
1.47422e+07
1.47421e+07
1.47419e+07
1.47418e+07
1.47416e+07
1.47415e+07
1.47413e+07
1.47412e+07
1.47411e+07
1.47409e+07
1.47408e+07
1.47406e+07
1.47404e+07
1.47403e+07
1.47401e+07
1.474e+07
1.47398e+07
1.47397e+07
1.47395e+07
1.47393e+07
1.47392e+07
1.4739e+07
1.47388e+07
1.47387e+07
1.47385e+07
1.47383e+07
1.47382e+07
1.4738e+07
1.47378e+07
1.47376e+07
1.47373e+07
1.4737e+07
1.47367e+07
1.47364e+07
1.47361e+07
1.47357e+07
1.47353e+07
1.47349e+07
1.47344e+07
1.47339e+07
1.47335e+07
1.4733e+07
1.47325e+07
1.47319e+07
1.47314e+07
1.47308e+07
1.47302e+07
1.47297e+07
1.47291e+07
1.47284e+07
1.47278e+07
1.47272e+07
1.47265e+07
1.47259e+07
1.47252e+07
1.47246e+07
1.47239e+07
1.47233e+07
1.47226e+07
1.4722e+07
1.47213e+07
1.47207e+07
1.47201e+07
1.47431e+07
1.4743e+07
1.47428e+07
1.47427e+07
1.47426e+07
1.47425e+07
1.47423e+07
1.47422e+07
1.47421e+07
1.47419e+07
1.47418e+07
1.47416e+07
1.47415e+07
1.47413e+07
1.47412e+07
1.47411e+07
1.47409e+07
1.47408e+07
1.47406e+07
1.47404e+07
1.47403e+07
1.47401e+07
1.474e+07
1.47398e+07
1.47397e+07
1.47395e+07
1.47393e+07
1.47392e+07
1.4739e+07
1.47388e+07
1.47387e+07
1.47385e+07
1.47383e+07
1.47382e+07
1.4738e+07
1.47378e+07
1.47376e+07
1.47373e+07
1.4737e+07
1.47367e+07
1.47364e+07
1.47361e+07
1.47357e+07
1.47353e+07
1.47349e+07
1.47344e+07
1.47339e+07
1.47335e+07
1.4733e+07
1.47325e+07
1.47319e+07
1.47314e+07
1.47308e+07
1.47302e+07
1.47297e+07
1.47291e+07
1.47284e+07
1.47278e+07
1.47272e+07
1.47265e+07
1.47259e+07
1.47252e+07
1.47246e+07
1.47239e+07
1.47233e+07
1.47226e+07
1.4722e+07
1.47213e+07
1.47207e+07
1.47201e+07
1.47431e+07
1.4743e+07
1.47428e+07
1.47427e+07
1.47426e+07
1.47425e+07
1.47423e+07
1.47422e+07
1.47421e+07
1.47419e+07
1.47418e+07
1.47416e+07
1.47415e+07
1.47413e+07
1.47412e+07
1.47411e+07
1.47409e+07
1.47408e+07
1.47406e+07
1.47404e+07
1.47403e+07
1.47401e+07
1.474e+07
1.47398e+07
1.47397e+07
1.47395e+07
1.47393e+07
1.47392e+07
1.4739e+07
1.47388e+07
1.47387e+07
1.47385e+07
1.47383e+07
1.47382e+07
1.4738e+07
1.47378e+07
1.47376e+07
1.47373e+07
1.4737e+07
1.47367e+07
1.47364e+07
1.47361e+07
1.47357e+07
1.47353e+07
1.47349e+07
1.47344e+07
1.47339e+07
1.47335e+07
1.4733e+07
1.47325e+07
1.47319e+07
1.47314e+07
1.47308e+07
1.47302e+07
1.47297e+07
1.47291e+07
1.47284e+07
1.47278e+07
1.47272e+07
1.47265e+07
1.47259e+07
1.47252e+07
1.47246e+07
1.47239e+07
1.47233e+07
1.47226e+07
1.4722e+07
1.47213e+07
1.47207e+07
1.47201e+07
)
;
    }
}


// ************************************************************************* //
