/*--------------------------------*- C++ -*----------------------------------*\
| =========                 |                                                 |
| \\      /  F ield         | OpenFOAM: The Open Source CFD Toolbox           |
|  \\    /   O peration     | Version:  2406                                  |
|   \\  /    A nd           | Website:  www.openfoam.com                      |
|    \\/     M anipulation  |                                                 |
\*---------------------------------------------------------------------------*/
FoamFile
{
    version     2.0;
    format      ascii;
    arch        "LSB;label=32;scalar=64";
    class       volTensorField;
    location    "0.6/fluidRegion";
    object      Kd.liquid.structure;
}
// * * * * * * * * * * * * * * * * * * * * * * * * * * * * * * * * * * * * * //

dimensions      [1 -3 -1 0 0 0 0];

internalField   nonuniform List<tensor> 
80
(
(1061.87 0 0 0 1061.87 0 0 0 1061.87)
(1061.87 0 0 0 1061.87 0 0 0 1061.87)
(1061.87 0 0 0 1061.87 0 0 0 1061.87)
(1061.87 0 0 0 1061.87 0 0 0 1061.87)
(1061.87 0 0 0 1061.87 0 0 0 1061.87)
(1060.99 0 0 0 1060.99 0 0 0 1060.99)
(1060.27 0 0 0 1060.27 0 0 0 1060.27)
(1059.56 0 0 0 1059.56 0 0 0 1059.56)
(1058.86 0 0 0 1058.86 0 0 0 1058.86)
(1058.16 0 0 0 1058.16 0 0 0 1058.16)
(1057.47 0 0 0 1057.47 0 0 0 1057.47)
(1056.78 0 0 0 1056.78 0 0 0 1056.78)
(1056.1 0 0 0 1056.1 0 0 0 1056.1)
(1055.42 0 0 0 1055.42 0 0 0 1055.42)
(1054.75 0 0 0 1054.75 0 0 0 1054.75)
(1054.08 0 0 0 1054.08 0 0 0 1054.08)
(1053.41 0 0 0 1053.41 0 0 0 1053.41)
(1052.75 0 0 0 1052.75 0 0 0 1052.75)
(1052.1 0 0 0 1052.1 0 0 0 1052.1)
(1051.45 0 0 0 1051.45 0 0 0 1051.45)
(1050.8 0 0 0 1050.8 0 0 0 1050.8)
(1050.16 0 0 0 1050.16 0 0 0 1050.16)
(1049.52 0 0 0 1049.52 0 0 0 1049.52)
(1048.89 0 0 0 1048.89 0 0 0 1048.89)
(1048.26 0 0 0 1048.26 0 0 0 1048.26)
(1047.63 0 0 0 1047.63 0 0 0 1047.63)
(1047.01 0 0 0 1047.01 0 0 0 1047.01)
(1046.39 0 0 0 1046.39 0 0 0 1046.39)
(1045.78 0 0 0 1045.78 0 0 0 1045.78)
(1045.16 0 0 0 1045.16 0 0 0 1045.16)
(1044.56 0 0 0 1044.56 0 0 0 1044.56)
(1053.41 0 0 0 1053.41 0 0 0 1053.41)
(1079.23 0 0 0 1079.23 0 0 0 1079.23)
(1118.41 0 0 0 1118.41 0 0 0 1118.41)
(1168.33 0 0 0 1168.33 0 0 0 1168.33)
(1228.46 0 0 0 1228.46 0 0 0 1228.46)
(1297.5 0 0 0 1297.5 0 0 0 1297.5)
(1374.81 0 0 0 1374.81 0 0 0 1374.81)
(1459.8 0 0 0 1459.8 0 0 0 1459.8)
(1552 0 0 0 1552 0 0 0 1552)
(1650.98 0 0 0 1650.98 0 0 0 1650.98)
(1756.29 0 0 0 1756.29 0 0 0 1756.29)
(1867.52 0 0 0 1867.52 0 0 0 1867.52)
(1984.19 0 0 0 1984.19 0 0 0 1984.19)
(2105.83 0 0 0 2105.83 0 0 0 2105.83)
(2231.91 0 0 0 2231.91 0 0 0 2231.91)
(2361.88 0 0 0 2361.88 0 0 0 2361.88)
(2495.12 0 0 0 2495.12 0 0 0 2495.12)
(2629.24 0 0 0 2629.24 0 0 0 2629.24)
(2763.11 0 0 0 2763.11 0 0 0 2763.11)
(2895.52 0 0 0 2895.52 0 0 0 2895.52)
(3024.08 0 0 0 3024.08 0 0 0 3024.08)
(3148.57 0 0 0 3148.57 0 0 0 3148.57)
(3269.67 0 0 0 3269.67 0 0 0 3269.67)
(3387.85 0 0 0 3387.85 0 0 0 3387.85)
(3503.43 0 0 0 3503.43 0 0 0 3503.43)
(3616.66 0 0 0 3616.66 0 0 0 3616.66)
(3727.76 0 0 0 3727.76 0 0 0 3727.76)
(3836.89 0 0 0 3836.89 0 0 0 3836.89)
(3944.19 0 0 0 3944.19 0 0 0 3944.19)
(4049.8 0 0 0 4049.8 0 0 0 4049.8)
(4153.83 0 0 0 4153.83 0 0 0 4153.83)
(4256.39 0 0 0 4256.39 0 0 0 4256.39)
(4357.55 0 0 0 4357.55 0 0 0 4357.55)
(4457.4 0 0 0 4457.4 0 0 0 4457.4)
(4556.02 0 0 0 4556.02 0 0 0 4556.02)
(4653.48 0 0 0 4653.48 0 0 0 4653.48)
(4749.83 0 0 0 4749.83 0 0 0 4749.83)
(4845.13 0 0 0 4845.13 0 0 0 4845.13)
(4939.44 0 0 0 4939.44 0 0 0 4939.44)
(5032.79 0 0 0 5032.79 0 0 0 5032.79)
(5125.25 0 0 0 5125.25 0 0 0 5125.25)
(5216.84 0 0 0 5216.84 0 0 0 5216.84)
(5307.55 0 0 0 5307.55 0 0 0 5307.55)
(5398.48 0 0 0 5398.48 0 0 0 5398.48)
(5439.78 0 0 0 5439.78 0 0 0 5439.78)
(5443.93 0 0 0 5443.93 0 0 0 5443.93)
(5447.95 0 0 0 5447.95 0 0 0 5447.95)
(5453.1 0 0 0 5453.1 0 0 0 5453.1)
(5458.99 0 0 0 5458.99 0 0 0 5458.99)
)
;

boundaryField
{
    inlet
    {
        type            zeroGradient;
    }
    outlet
    {
        type            zeroGradient;
    }
    fixedWalls
    {
        type            zeroGradient;
    }
}


// ************************************************************************* //
