/*--------------------------------*- C++ -*----------------------------------*\
| =========                 |                                                 |
| \\      /  F ield         | OpenFOAM: The Open Source CFD Toolbox           |
|  \\    /   O peration     | Version:  2406                                  |
|   \\  /    A nd           | Website:  www.openfoam.com                      |
|    \\/     M anipulation  |                                                 |
\*---------------------------------------------------------------------------*/
FoamFile
{
    version     2.0;
    format      ascii;
    arch        "LSB;label=32;scalar=64";
    class       volTensorField;
    location    "0.6/fluidRegion";
    object      KdTotU;
}
// * * * * * * * * * * * * * * * * * * * * * * * * * * * * * * * * * * * * * //

dimensions      [1 -2 -2 0 0 0 0];

internalField   nonuniform List<tensor> 
80
(
(4736.89 0 0 0 4736.89 0 0 0 4736.89)
(4736.89 0 0 0 4736.89 0 0 0 4736.89)
(4736.89 0 0 0 4736.89 0 0 0 4736.89)
(4736.89 0 0 0 4736.89 0 0 0 4736.89)
(4736.89 0 0 0 4736.89 0 0 0 4736.89)
(4733.95 0 0 0 4733.95 0 0 0 4733.95)
(4732.76 0 0 0 4732.76 0 0 0 4732.76)
(4731.67 0 0 0 4731.67 0 0 0 4731.67)
(4730.66 0 0 0 4730.66 0 0 0 4730.66)
(4729.75 0 0 0 4729.75 0 0 0 4729.75)
(4728.92 0 0 0 4728.92 0 0 0 4728.92)
(4728.18 0 0 0 4728.18 0 0 0 4728.18)
(4727.52 0 0 0 4727.52 0 0 0 4727.52)
(4726.95 0 0 0 4726.95 0 0 0 4726.95)
(4726.47 0 0 0 4726.47 0 0 0 4726.47)
(4726.07 0 0 0 4726.07 0 0 0 4726.07)
(4725.76 0 0 0 4725.76 0 0 0 4725.76)
(4725.52 0 0 0 4725.52 0 0 0 4725.52)
(4725.38 0 0 0 4725.38 0 0 0 4725.38)
(4725.31 0 0 0 4725.31 0 0 0 4725.31)
(4725.32 0 0 0 4725.32 0 0 0 4725.32)
(4725.42 0 0 0 4725.42 0 0 0 4725.42)
(4725.6 0 0 0 4725.6 0 0 0 4725.6)
(4725.85 0 0 0 4725.85 0 0 0 4725.85)
(4726.19 0 0 0 4726.19 0 0 0 4726.19)
(4726.6 0 0 0 4726.6 0 0 0 4726.6)
(4727.1 0 0 0 4727.1 0 0 0 4727.1)
(4727.67 0 0 0 4727.67 0 0 0 4727.67)
(4728.31 0 0 0 4728.31 0 0 0 4728.31)
(4729.04 0 0 0 4729.04 0 0 0 4729.04)
(4729.84 0 0 0 4729.84 0 0 0 4729.84)
(4775.41 0 0 0 4775.41 0 0 0 4775.41)
(4903.73 0 0 0 4903.73 0 0 0 4903.73)
(5100.68 0 0 0 5100.68 0 0 0 5100.68)
(5354.62 0 0 0 5354.62 0 0 0 5354.62)
(5663.81 0 0 0 5663.81 0 0 0 5663.81)
(6023.6 0 0 0 6023.6 0 0 0 6023.6)
(6432.46 0 0 0 6432.46 0 0 0 6432.46)
(6889.23 0 0 0 6889.23 0 0 0 6889.23)
(7393.38 0 0 0 7393.38 0 0 0 7393.38)
(7944.6 0 0 0 7944.6 0 0 0 7944.6)
(8542.67 0 0 0 8542.67 0 0 0 8542.67)
(9187.25 0 0 0 9187.25 0 0 0 9187.25)
(9877.86 0 0 0 9877.86 0 0 0 9877.86)
(10613.7 0 0 0 10613.7 0 0 0 10613.7)
(11393.7 0 0 0 11393.7 0 0 0 11393.7)
(12216.3 0 0 0 12216.3 0 0 0 12216.3)
(13079.1 0 0 0 13079.1 0 0 0 13079.1)
(13969 0 0 0 13969 0 0 0 13969)
(14878.5 0 0 0 14878.5 0 0 0 14878.5)
(15799.4 0 0 0 15799.4 0 0 0 15799.4)
(16715.2 0 0 0 16715.2 0 0 0 16715.2)
(17621.8 0 0 0 17621.8 0 0 0 17621.8)
(18522.2 0 0 0 18522.2 0 0 0 18522.2)
(19417.9 0 0 0 19417.9 0 0 0 19417.9)
(20310.2 0 0 0 20310.2 0 0 0 20310.2)
(21199.6 0 0 0 21199.6 0 0 0 21199.6)
(22087 0 0 0 22087 0 0 0 22087)
(22972.5 0 0 0 22972.5 0 0 0 22972.5)
(23856.7 0 0 0 23856.7 0 0 0 23856.7)
(24739.7 0 0 0 24739.7 0 0 0 24739.7)
(25621.9 0 0 0 25621.9 0 0 0 25621.9)
(26503.4 0 0 0 26503.4 0 0 0 26503.4)
(27384.3 0 0 0 27384.3 0 0 0 27384.3)
(28264.9 0 0 0 28264.9 0 0 0 28264.9)
(29145.1 0 0 0 29145.1 0 0 0 29145.1)
(30025.1 0 0 0 30025.1 0 0 0 30025.1)
(30904.9 0 0 0 30904.9 0 0 0 30904.9)
(31784.7 0 0 0 31784.7 0 0 0 31784.7)
(32664.4 0 0 0 32664.4 0 0 0 32664.4)
(33544.1 0 0 0 33544.1 0 0 0 33544.1)
(34423.8 0 0 0 34423.8 0 0 0 34423.8)
(35303.5 0 0 0 35303.5 0 0 0 35303.5)
(36183.8 0 0 0 36183.8 0 0 0 36183.8)
(37056.6 0 0 0 37056.6 0 0 0 37056.6)
(37476.9 0 0 0 37476.9 0 0 0 37476.9)
(37543.6 0 0 0 37543.6 0 0 0 37543.6)
(37606.1 0 0 0 37606.1 0 0 0 37606.1)
(37669.8 0 0 0 37669.8 0 0 0 37669.8)
(37733.7 0 0 0 37733.7 0 0 0 37733.7)
)
;

boundaryField
{
    inlet
    {
        type            zeroGradient;
    }
    outlet
    {
        type            zeroGradient;
    }
    fixedWalls
    {
        type            zeroGradient;
    }
}


// ************************************************************************* //
