/*--------------------------------*- C++ -*----------------------------------*\
| =========                 |                                                 |
| \\      /  F ield         | OpenFOAM: The Open Source CFD Toolbox           |
|  \\    /   O peration     | Version:  2406                                  |
|   \\  /    A nd           | Website:  www.openfoam.com                      |
|    \\/     M anipulation  |                                                 |
\*---------------------------------------------------------------------------*/
FoamFile
{
    version     2.0;
    format      ascii;
    arch        "LSB;label=32;scalar=64";
    class       volScalarField;
    location    "0.6/fluidRegion";
    object      p;
}
// * * * * * * * * * * * * * * * * * * * * * * * * * * * * * * * * * * * * * //

dimensions      [1 -1 -2 0 0 0 0];

internalField   nonuniform List<scalar> 
80
(
7.26248e+06
7.26229e+06
7.26211e+06
7.26192e+06
7.26173e+06
7.26153e+06
7.2613e+06
7.26107e+06
7.26084e+06
7.26061e+06
7.26039e+06
7.26016e+06
7.25993e+06
7.2597e+06
7.25947e+06
7.25924e+06
7.25901e+06
7.25878e+06
7.25855e+06
7.25832e+06
7.25809e+06
7.25786e+06
7.25763e+06
7.2574e+06
7.25717e+06
7.25693e+06
7.2567e+06
7.25647e+06
7.25624e+06
7.25601e+06
7.25577e+06
7.25554e+06
7.25529e+06
7.25502e+06
7.25471e+06
7.25437e+06
7.25399e+06
7.25359e+06
7.25314e+06
7.25266e+06
7.25214e+06
7.25158e+06
7.25098e+06
7.25033e+06
7.24964e+06
7.2489e+06
7.24811e+06
7.24726e+06
7.24637e+06
7.24543e+06
7.24444e+06
7.24341e+06
7.24234e+06
7.24123e+06
7.24008e+06
7.23889e+06
7.23766e+06
7.23639e+06
7.23508e+06
7.23373e+06
7.23235e+06
7.23092e+06
7.22945e+06
7.22794e+06
7.22639e+06
7.2248e+06
7.22317e+06
7.2215e+06
7.21979e+06
7.21804e+06
7.21625e+06
7.21441e+06
7.21254e+06
7.21062e+06
7.20866e+06
7.20686e+06
7.2053e+06
7.20379e+06
7.20228e+06
7.20076e+06
)
;

boundaryField
{
    inlet
    {
        type            calculated;
        value           uniform 7.26257e+06;
    }
    outlet
    {
        type            calculated;
        value           uniform 7.2e+06;
    }
    fixedWalls
    {
        type            calculated;
        value           nonuniform List<scalar> 
320
(
7.26248e+06
7.26229e+06
7.26211e+06
7.26192e+06
7.26173e+06
7.26153e+06
7.2613e+06
7.26107e+06
7.26084e+06
7.26061e+06
7.26039e+06
7.26016e+06
7.25993e+06
7.2597e+06
7.25947e+06
7.25924e+06
7.25901e+06
7.25878e+06
7.25855e+06
7.25832e+06
7.25809e+06
7.25786e+06
7.25763e+06
7.2574e+06
7.25717e+06
7.25693e+06
7.2567e+06
7.25647e+06
7.25624e+06
7.25601e+06
7.25577e+06
7.25554e+06
7.25529e+06
7.25502e+06
7.25471e+06
7.25437e+06
7.25399e+06
7.25359e+06
7.25314e+06
7.25266e+06
7.25214e+06
7.25158e+06
7.25098e+06
7.25033e+06
7.24964e+06
7.2489e+06
7.24811e+06
7.24726e+06
7.24637e+06
7.24543e+06
7.24444e+06
7.24341e+06
7.24234e+06
7.24123e+06
7.24008e+06
7.23889e+06
7.23766e+06
7.23639e+06
7.23508e+06
7.23373e+06
7.23235e+06
7.23092e+06
7.22945e+06
7.22794e+06
7.22639e+06
7.2248e+06
7.22317e+06
7.2215e+06
7.21979e+06
7.21804e+06
7.21625e+06
7.21441e+06
7.21254e+06
7.21062e+06
7.20866e+06
7.20686e+06
7.2053e+06
7.20379e+06
7.20228e+06
7.20076e+06
7.26248e+06
7.26229e+06
7.26211e+06
7.26192e+06
7.26173e+06
7.26153e+06
7.2613e+06
7.26107e+06
7.26084e+06
7.26061e+06
7.26039e+06
7.26016e+06
7.25993e+06
7.2597e+06
7.25947e+06
7.25924e+06
7.25901e+06
7.25878e+06
7.25855e+06
7.25832e+06
7.25809e+06
7.25786e+06
7.25763e+06
7.2574e+06
7.25717e+06
7.25693e+06
7.2567e+06
7.25647e+06
7.25624e+06
7.25601e+06
7.25577e+06
7.25554e+06
7.25529e+06
7.25502e+06
7.25471e+06
7.25437e+06
7.25399e+06
7.25359e+06
7.25314e+06
7.25266e+06
7.25214e+06
7.25158e+06
7.25098e+06
7.25033e+06
7.24964e+06
7.2489e+06
7.24811e+06
7.24726e+06
7.24637e+06
7.24543e+06
7.24444e+06
7.24341e+06
7.24234e+06
7.24123e+06
7.24008e+06
7.23889e+06
7.23766e+06
7.23639e+06
7.23508e+06
7.23373e+06
7.23235e+06
7.23092e+06
7.22945e+06
7.22794e+06
7.22639e+06
7.2248e+06
7.22317e+06
7.2215e+06
7.21979e+06
7.21804e+06
7.21625e+06
7.21441e+06
7.21254e+06
7.21062e+06
7.20866e+06
7.20686e+06
7.2053e+06
7.20379e+06
7.20228e+06
7.20076e+06
7.26248e+06
7.26229e+06
7.26211e+06
7.26192e+06
7.26173e+06
7.26153e+06
7.2613e+06
7.26107e+06
7.26084e+06
7.26061e+06
7.26039e+06
7.26016e+06
7.25993e+06
7.2597e+06
7.25947e+06
7.25924e+06
7.25901e+06
7.25878e+06
7.25855e+06
7.25832e+06
7.25809e+06
7.25786e+06
7.25763e+06
7.2574e+06
7.25717e+06
7.25693e+06
7.2567e+06
7.25647e+06
7.25624e+06
7.25601e+06
7.25577e+06
7.25554e+06
7.25529e+06
7.25502e+06
7.25471e+06
7.25437e+06
7.25399e+06
7.25359e+06
7.25314e+06
7.25266e+06
7.25214e+06
7.25158e+06
7.25098e+06
7.25033e+06
7.24964e+06
7.2489e+06
7.24811e+06
7.24726e+06
7.24637e+06
7.24543e+06
7.24444e+06
7.24341e+06
7.24234e+06
7.24123e+06
7.24008e+06
7.23889e+06
7.23766e+06
7.23639e+06
7.23508e+06
7.23373e+06
7.23235e+06
7.23092e+06
7.22945e+06
7.22794e+06
7.22639e+06
7.2248e+06
7.22317e+06
7.2215e+06
7.21979e+06
7.21804e+06
7.21625e+06
7.21441e+06
7.21254e+06
7.21062e+06
7.20866e+06
7.20686e+06
7.2053e+06
7.20379e+06
7.20228e+06
7.20076e+06
7.26248e+06
7.26229e+06
7.26211e+06
7.26192e+06
7.26173e+06
7.26153e+06
7.2613e+06
7.26107e+06
7.26084e+06
7.26061e+06
7.26039e+06
7.26016e+06
7.25993e+06
7.2597e+06
7.25947e+06
7.25924e+06
7.25901e+06
7.25878e+06
7.25855e+06
7.25832e+06
7.25809e+06
7.25786e+06
7.25763e+06
7.2574e+06
7.25717e+06
7.25693e+06
7.2567e+06
7.25647e+06
7.25624e+06
7.25601e+06
7.25577e+06
7.25554e+06
7.25529e+06
7.25502e+06
7.25471e+06
7.25437e+06
7.25399e+06
7.25359e+06
7.25314e+06
7.25266e+06
7.25214e+06
7.25158e+06
7.25098e+06
7.25033e+06
7.24964e+06
7.2489e+06
7.24811e+06
7.24726e+06
7.24637e+06
7.24543e+06
7.24444e+06
7.24341e+06
7.24234e+06
7.24123e+06
7.24008e+06
7.23889e+06
7.23766e+06
7.23639e+06
7.23508e+06
7.23373e+06
7.23235e+06
7.23092e+06
7.22945e+06
7.22794e+06
7.22639e+06
7.2248e+06
7.22317e+06
7.2215e+06
7.21979e+06
7.21804e+06
7.21625e+06
7.21441e+06
7.21254e+06
7.21062e+06
7.20866e+06
7.20686e+06
7.2053e+06
7.20379e+06
7.20228e+06
7.20076e+06
)
;
    }
}


// ************************************************************************* //
