/*--------------------------------*- C++ -*----------------------------------*\
| =========                 |                                                 |
| \\      /  F ield         | OpenFOAM: The Open Source CFD Toolbox           |
|  \\    /   O peration     | Version:  2406                                  |
|   \\  /    A nd           | Website:  www.openfoam.com                      |
|    \\/     M anipulation  |                                                 |
\*---------------------------------------------------------------------------*/
FoamFile
{
    version     2.0;
    format      ascii;
    arch        "LSB;label=32;scalar=64";
    class       volScalarField;
    location    "0.6/fluidRegion";
    object      alphaRhoMagU.vapour;
}
// * * * * * * * * * * * * * * * * * * * * * * * * * * * * * * * * * * * * * //

dimensions      [1 -2 -1 0 0 0 0];

internalField   nonuniform List<scalar> 
75
(
0
0
0
0
0
0
0
0
0
0
0
0
0.117898
0.371407
0.735713
1.20076
1.7671
2.43365
3.20506
4.08766
5.08961
6.22012
7.48904
8.90639
10.4819
12.2239
14.1459
16.4174
19.0585
21.9231
24.9287
28.04
31.2384
34.5115
37.8505
41.2482
44.6986
48.1966
51.7377
55.3181
58.934
62.5824
66.26
69.95
73.6476
77.3526
81.0651
84.7852
88.5131
92.2489
95.9926
99.7441
103.506
107.218
110.914
114.657
118.411
122.174
125.943
129.716
133.494
137.276
141.062
144.853
148.647
152.446
156.25
160.058
163.872
167.689
171.513
175.332
179.191
182.933
187.115
)
;

boundaryField
{
    inlet
    {
        type            calculated;
        value           uniform 0;
    }
    outlet
    {
        type            calculated;
        value           uniform 187.102;
    }
    fixedWalls
    {
        type            calculated;
        value           nonuniform List<scalar> 
300
(
0
0
0
0
0
0
0
0
0
0
0
0
0.117898
0.371407
0.735713
1.20076
1.7671
2.43365
3.20506
4.08766
5.08961
6.22012
7.48904
8.90639
10.4819
12.2239
14.1459
16.4174
19.0585
21.9231
24.9287
28.04
31.2384
34.5115
37.8505
41.2482
44.6986
48.1966
51.7377
55.3181
58.934
62.5824
66.26
69.95
73.6476
77.3526
81.0651
84.7852
88.5131
92.2489
95.9926
99.7441
103.506
107.218
110.914
114.657
118.411
122.174
125.943
129.716
133.494
137.276
141.062
144.853
148.647
152.446
156.25
160.058
163.872
167.689
171.513
175.332
179.191
182.933
187.115
0
0
0
0
0
0
0
0
0
0
0
0
0.117898
0.371407
0.735713
1.20076
1.7671
2.43365
3.20506
4.08766
5.08961
6.22012
7.48904
8.90639
10.4819
12.2239
14.1459
16.4174
19.0585
21.9231
24.9287
28.04
31.2384
34.5115
37.8505
41.2482
44.6986
48.1966
51.7377
55.3181
58.934
62.5824
66.26
69.95
73.6476
77.3526
81.0651
84.7852
88.5131
92.2489
95.9926
99.7441
103.506
107.218
110.914
114.657
118.411
122.174
125.943
129.716
133.494
137.276
141.062
144.853
148.647
152.446
156.25
160.058
163.872
167.689
171.513
175.332
179.191
182.933
187.115
0
0
0
0
0
0
0
0
0
0
0
0
0.117898
0.371407
0.735713
1.20076
1.7671
2.43365
3.20506
4.08766
5.08961
6.22012
7.48904
8.90639
10.4819
12.2239
14.1459
16.4174
19.0585
21.9231
24.9287
28.04
31.2384
34.5115
37.8505
41.2482
44.6986
48.1966
51.7377
55.3181
58.934
62.5824
66.26
69.95
73.6476
77.3526
81.0651
84.7852
88.5131
92.2489
95.9926
99.7441
103.506
107.218
110.914
114.657
118.411
122.174
125.943
129.716
133.494
137.276
141.062
144.853
148.647
152.446
156.25
160.058
163.872
167.689
171.513
175.332
179.191
182.933
187.115
0
0
0
0
0
0
0
0
0
0
0
0
0.117898
0.371407
0.735713
1.20076
1.7671
2.43365
3.20506
4.08766
5.08961
6.22012
7.48904
8.90639
10.4819
12.2239
14.1459
16.4174
19.0585
21.9231
24.9287
28.04
31.2384
34.5115
37.8505
41.2482
44.6986
48.1966
51.7377
55.3181
58.934
62.5824
66.26
69.95
73.6476
77.3526
81.0651
84.7852
88.5131
92.2489
95.9926
99.7441
103.506
107.218
110.914
114.657
118.411
122.174
125.943
129.716
133.494
137.276
141.062
144.853
148.647
152.446
156.25
160.058
163.872
167.689
171.513
175.332
179.191
182.933
187.115
)
;
    }
}


// ************************************************************************* //
