/*--------------------------------*- C++ -*----------------------------------*\
| =========                 |                                                 |
| \\      /  F ield         | OpenFOAM: The Open Source CFD Toolbox           |
|  \\    /   O peration     | Version:  2406                                  |
|   \\  /    A nd           | Website:  www.openfoam.com                      |
|    \\/     M anipulation  |                                                 |
\*---------------------------------------------------------------------------*/
FoamFile
{
    version     2.0;
    format      ascii;
    arch        "LSB;label=32;scalar=64";
    class       volScalarField;
    location    "0.6/fluidRegion";
    object      dgdt.vapour;
}
// * * * * * * * * * * * * * * * * * * * * * * * * * * * * * * * * * * * * * //

dimensions      [0 0 -1 0 0 0 0];

internalField   nonuniform List<scalar> 
75
(
-0
-0
-0
-0
-0
-1.22287e-18
-2.09719e-18
-2.00048e-18
-5.57868e-19
-2.01552e-19
-1.46176e-19
-4.31158e-17
0.108977
0.220192
0.318463
0.408846
0.495809
0.584163
0.676529
0.774888
0.880607
0.994618
1.11744
1.24918
1.38948
1.53755
1.69198
2.03178
2.36111
2.52893
2.64254
2.73056
2.80358
2.86643
2.92171
2.97094
3.01515
3.05504
3.09117
3.12397
3.15379
3.18092
3.20566
3.21173
3.21748
3.22356
3.22988
3.23641
3.24312
3.24999
3.25699
3.2641
3.27129
3.27776
3.27421
3.27433
3.27599
3.27849
3.28156
3.28505
3.28888
3.29298
3.29732
3.30185
3.30655
3.31139
3.31635
3.32142
3.32657
3.33179
3.33705
3.34239
3.3476
3.35337
3.36942
)
;

boundaryField
{
    inlet
    {
        type            calculated;
        value           uniform -0;
    }
    outlet
    {
        type            calculated;
        value           uniform 3.36942;
    }
    fixedWalls
    {
        type            calculated;
        value           nonuniform List<scalar> 
300
(
-0
-0
-0
-0
-0
-1.22287e-18
-2.09719e-18
-2.00048e-18
-5.57868e-19
-2.01552e-19
-1.46176e-19
-4.31158e-17
0.108977
0.220192
0.318463
0.408846
0.495809
0.584163
0.676529
0.774888
0.880607
0.994618
1.11744
1.24918
1.38948
1.53755
1.69198
2.03178
2.36111
2.52893
2.64254
2.73056
2.80358
2.86643
2.92171
2.97094
3.01515
3.05504
3.09117
3.12397
3.15379
3.18092
3.20566
3.21173
3.21748
3.22356
3.22988
3.23641
3.24312
3.24999
3.25699
3.2641
3.27129
3.27776
3.27421
3.27433
3.27599
3.27849
3.28156
3.28505
3.28888
3.29298
3.29732
3.30185
3.30655
3.31139
3.31635
3.32142
3.32657
3.33179
3.33705
3.34239
3.3476
3.35337
3.36942
-0
-0
-0
-0
-0
-1.22287e-18
-2.09719e-18
-2.00048e-18
-5.57868e-19
-2.01552e-19
-1.46176e-19
-4.31158e-17
0.108977
0.220192
0.318463
0.408846
0.495809
0.584163
0.676529
0.774888
0.880607
0.994618
1.11744
1.24918
1.38948
1.53755
1.69198
2.03178
2.36111
2.52893
2.64254
2.73056
2.80358
2.86643
2.92171
2.97094
3.01515
3.05504
3.09117
3.12397
3.15379
3.18092
3.20566
3.21173
3.21748
3.22356
3.22988
3.23641
3.24312
3.24999
3.25699
3.2641
3.27129
3.27776
3.27421
3.27433
3.27599
3.27849
3.28156
3.28505
3.28888
3.29298
3.29732
3.30185
3.30655
3.31139
3.31635
3.32142
3.32657
3.33179
3.33705
3.34239
3.3476
3.35337
3.36942
-0
-0
-0
-0
-0
-1.22287e-18
-2.09719e-18
-2.00048e-18
-5.57868e-19
-2.01552e-19
-1.46176e-19
-4.31158e-17
0.108977
0.220192
0.318463
0.408846
0.495809
0.584163
0.676529
0.774888
0.880607
0.994618
1.11744
1.24918
1.38948
1.53755
1.69198
2.03178
2.36111
2.52893
2.64254
2.73056
2.80358
2.86643
2.92171
2.97094
3.01515
3.05504
3.09117
3.12397
3.15379
3.18092
3.20566
3.21173
3.21748
3.22356
3.22988
3.23641
3.24312
3.24999
3.25699
3.2641
3.27129
3.27776
3.27421
3.27433
3.27599
3.27849
3.28156
3.28505
3.28888
3.29298
3.29732
3.30185
3.30655
3.31139
3.31635
3.32142
3.32657
3.33179
3.33705
3.34239
3.3476
3.35337
3.36942
-0
-0
-0
-0
-0
-1.22287e-18
-2.09719e-18
-2.00048e-18
-5.57868e-19
-2.01552e-19
-1.46176e-19
-4.31158e-17
0.108977
0.220192
0.318463
0.408846
0.495809
0.584163
0.676529
0.774888
0.880607
0.994618
1.11744
1.24918
1.38948
1.53755
1.69198
2.03178
2.36111
2.52893
2.64254
2.73056
2.80358
2.86643
2.92171
2.97094
3.01515
3.05504
3.09117
3.12397
3.15379
3.18092
3.20566
3.21173
3.21748
3.22356
3.22988
3.23641
3.24312
3.24999
3.25699
3.2641
3.27129
3.27776
3.27421
3.27433
3.27599
3.27849
3.28156
3.28505
3.28888
3.29298
3.29732
3.30185
3.30655
3.31139
3.31635
3.32142
3.32657
3.33179
3.33705
3.34239
3.3476
3.35337
3.36942
)
;
    }
}


// ************************************************************************* //
