/*--------------------------------*- C++ -*----------------------------------*\
| =========                 |                                                 |
| \\      /  F ield         | OpenFOAM: The Open Source CFD Toolbox           |
|  \\    /   O peration     | Version:  2406                                  |
|   \\  /    A nd           | Website:  www.openfoam.com                      |
|    \\/     M anipulation  |                                                 |
\*---------------------------------------------------------------------------*/
FoamFile
{
    version     2.0;
    format      ascii;
    arch        "LSB;label=32;scalar=64";
    class       volTensorField;
    location    "0.6/fluidRegion";
    object      Kd.liquid.structure;
}
// * * * * * * * * * * * * * * * * * * * * * * * * * * * * * * * * * * * * * //

dimensions      [1 -3 -1 0 0 0 0];

internalField   nonuniform List<tensor> 
75
(
(608.06 0 0 0 608.06 0 0 0 608.06)
(608.06 0 0 0 608.06 0 0 0 608.06)
(608.06 0 0 0 608.06 0 0 0 608.06)
(608.06 0 0 0 608.06 0 0 0 608.06)
(608.06 0 0 0 608.06 0 0 0 608.06)
(606.097 0 0 0 606.097 0 0 0 606.097)
(605.173 0 0 0 605.173 0 0 0 605.173)
(604.245 0 0 0 604.245 0 0 0 604.245)
(603.312 0 0 0 603.312 0 0 0 603.312)
(602.376 0 0 0 602.376 0 0 0 602.376)
(601.434 0 0 0 601.434 0 0 0 601.434)
(600.488 0 0 0 600.488 0 0 0 600.488)
(620.083 0 0 0 620.083 0 0 0 620.083)
(656.181 0 0 0 656.181 0 0 0 656.181)
(703.378 0 0 0 703.378 0 0 0 703.378)
(759.474 0 0 0 759.474 0 0 0 759.474)
(823.738 0 0 0 823.738 0 0 0 823.738)
(895.258 0 0 0 895.258 0 0 0 895.258)
(973.792 0 0 0 973.792 0 0 0 973.792)
(1059.22 0 0 0 1059.22 0 0 0 1059.22)
(1151.54 0 0 0 1151.54 0 0 0 1151.54)
(1250.77 0 0 0 1250.77 0 0 0 1250.77)
(1356.89 0 0 0 1356.89 0 0 0 1356.89)
(1469.85 0 0 0 1469.85 0 0 0 1469.85)
(1589.5 0 0 0 1589.5 0 0 0 1589.5)
(1715.57 0 0 0 1715.57 0 0 0 1715.57)
(1847.93 0 0 0 1847.93 0 0 0 1847.93)
(1996.48 0 0 0 1996.48 0 0 0 1996.48)
(2160.97 0 0 0 2160.97 0 0 0 2160.97)
(2330.74 0 0 0 2330.74 0 0 0 2330.74)
(2499.83 0 0 0 2499.83 0 0 0 2499.83)
(2666.3 0 0 0 2666.3 0 0 0 2666.3)
(2829.47 0 0 0 2829.47 0 0 0 2829.47)
(2989.15 0 0 0 2989.15 0 0 0 2989.15)
(3145.33 0 0 0 3145.33 0 0 0 3145.33)
(3298.08 0 0 0 3298.08 0 0 0 3298.08)
(3447.56 0 0 0 3447.56 0 0 0 3447.56)
(3593.89 0 0 0 3593.89 0 0 0 3593.89)
(3737.24 0 0 0 3737.24 0 0 0 3737.24)
(3877.77 0 0 0 3877.77 0 0 0 3877.77)
(4015.61 0 0 0 4015.61 0 0 0 4015.61)
(4150.94 0 0 0 4150.94 0 0 0 4150.94)
(4283.87 0 0 0 4283.87 0 0 0 4283.87)
(4414.14 0 0 0 4414.14 0 0 0 4414.14)
(4541.7 0 0 0 4541.7 0 0 0 4541.7)
(4666.75 0 0 0 4666.75 0 0 0 4666.75)
(4789.48 0 0 0 4789.48 0 0 0 4789.48)
(4910.07 0 0 0 4910.07 0 0 0 4910.07)
(5028.7 0 0 0 5028.7 0 0 0 5028.7)
(5145.5 0 0 0 5145.5 0 0 0 5145.5)
(5260.61 0 0 0 5260.61 0 0 0 5260.61)
(5374.18 0 0 0 5374.18 0 0 0 5374.18)
(5486.21 0 0 0 5486.21 0 0 0 5486.21)
(5606.98 0 0 0 5606.98 0 0 0 5606.98)
(5832.34 0 0 0 5832.34 0 0 0 5832.34)
(6061.7 0 0 0 6061.7 0 0 0 6061.7)
(6293.54 0 0 0 6293.54 0 0 0 6293.54)
(6528.53 0 0 0 6528.53 0 0 0 6528.53)
(6766.68 0 0 0 6766.68 0 0 0 6766.68)
(7008.13 0 0 0 7008.13 0 0 0 7008.13)
(7252.96 0 0 0 7252.96 0 0 0 7252.96)
(7501.26 0 0 0 7501.26 0 0 0 7501.26)
(7753.11 0 0 0 7753.11 0 0 0 7753.11)
(8008.58 0 0 0 8008.58 0 0 0 8008.58)
(8267.75 0 0 0 8267.75 0 0 0 8267.75)
(8530.69 0 0 0 8530.69 0 0 0 8530.69)
(8797.5 0 0 0 8797.5 0 0 0 8797.5)
(9068.23 0 0 0 9068.23 0 0 0 9068.23)
(9342.98 0 0 0 9342.98 0 0 0 9342.98)
(9621.7 0 0 0 9621.7 0 0 0 9621.7)
(9905.02 0 0 0 9905.02 0 0 0 9905.02)
(10190.9 0 0 0 10190.9 0 0 0 10190.9)
(10487.5 0 0 0 10487.5 0 0 0 10487.5)
(10765.4 0 0 0 10765.4 0 0 0 10765.4)
(11132.3 0 0 0 11132.3 0 0 0 11132.3)
)
;

boundaryField
{
    inlet
    {
        type            zeroGradient;
    }
    outlet
    {
        type            zeroGradient;
    }
    fixedWalls
    {
        type            zeroGradient;
    }
}


// ************************************************************************* //
