/*--------------------------------*- C++ -*----------------------------------*\
| =========                 |                                                 |
| \\      /  F ield         | OpenFOAM: The Open Source CFD Toolbox           |
|  \\    /   O peration     | Version:  2406                                  |
|   \\  /    A nd           | Website:  www.openfoam.com                      |
|    \\/     M anipulation  |                                                 |
\*---------------------------------------------------------------------------*/
FoamFile
{
    version     2.0;
    format      ascii;
    arch        "LSB;label=32;scalar=64";
    class       volTensorField;
    location    "0.6/fluidRegion";
    object      KdTotU;
}
// * * * * * * * * * * * * * * * * * * * * * * * * * * * * * * * * * * * * * //

dimensions      [1 -2 -2 0 0 0 0];

internalField   nonuniform List<tensor> 
75
(
(1180.2 0 0 0 1180.2 0 0 0 1180.2)
(1180.2 0 0 0 1180.2 0 0 0 1180.2)
(1180.2 0 0 0 1180.2 0 0 0 1180.2)
(1180.2 0 0 0 1180.2 0 0 0 1180.2)
(1180.2 0 0 0 1180.2 0 0 0 1180.2)
(1179.12 0 0 0 1179.12 0 0 0 1179.12)
(1182.84 0 0 0 1182.84 0 0 0 1182.84)
(1186.63 0 0 0 1186.63 0 0 0 1186.63)
(1190.48 0 0 0 1190.48 0 0 0 1190.48)
(1194.39 0 0 0 1194.39 0 0 0 1194.39)
(1198.36 0 0 0 1198.36 0 0 0 1198.36)
(1202.38 0 0 0 1202.38 0 0 0 1202.38)
(1249.07 0 0 0 1249.07 0 0 0 1249.07)
(1332.26 0 0 0 1332.26 0 0 0 1332.26)
(1441.66 0 0 0 1441.66 0 0 0 1441.66)
(1573.37 0 0 0 1573.37 0 0 0 1573.37)
(1726.59 0 0 0 1726.59 0 0 0 1726.59)
(1900.32 0 0 0 1900.32 0 0 0 1900.32)
(2095.04 0 0 0 2095.04 0 0 0 2095.04)
(2311.59 0 0 0 2311.59 0 0 0 2311.59)
(2551.16 0 0 0 2551.16 0 0 0 2551.16)
(2815.06 0 0 0 2815.06 0 0 0 2815.06)
(3104.67 0 0 0 3104.67 0 0 0 3104.67)
(3421.28 0 0 0 3421.28 0 0 0 3421.28)
(3766.01 0 0 0 3766.01 0 0 0 3766.01)
(4139.66 0 0 0 4139.66 0 0 0 4139.66)
(4543.56 0 0 0 4543.56 0 0 0 4543.56)
(5007.24 0 0 0 5007.24 0 0 0 5007.24)
(5535.6 0 0 0 5535.6 0 0 0 5535.6)
(6100.16 0 0 0 6100.16 0 0 0 6100.16)
(6681.66 0 0 0 6681.66 0 0 0 6681.66)
(7272.47 0 0 0 7272.47 0 0 0 7272.47)
(7868.75 0 0 0 7868.75 0 0 0 7868.75)
(8468.1 0 0 0 8468.1 0 0 0 8468.1)
(9068.81 0 0 0 9068.81 0 0 0 9068.81)
(9669.6 0 0 0 9669.6 0 0 0 9669.6)
(10269.4 0 0 0 10269.4 0 0 0 10269.4)
(10867.3 0 0 0 10867.3 0 0 0 10867.3)
(11462.7 0 0 0 11462.7 0 0 0 11462.7)
(12054.8 0 0 0 12054.8 0 0 0 12054.8)
(12643.1 0 0 0 12643.1 0 0 0 12643.1)
(13227 0 0 0 13227 0 0 0 13227)
(13806.2 0 0 0 13806.2 0 0 0 13806.2)
(14378.6 0 0 0 14378.6 0 0 0 14378.6)
(14943 0 0 0 14943 0 0 0 14943)
(15499.7 0 0 0 15499.7 0 0 0 15499.7)
(16048.7 0 0 0 16048.7 0 0 0 16048.7)
(16590.2 0 0 0 16590.2 0 0 0 16590.2)
(17124.4 0 0 0 17124.4 0 0 0 17124.4)
(17651.2 0 0 0 17651.2 0 0 0 17651.2)
(18170.8 0 0 0 18170.8 0 0 0 18170.8)
(18683.3 0 0 0 18683.3 0 0 0 18683.3)
(19188.7 0 0 0 19188.7 0 0 0 19188.7)
(19712.3 0 0 0 19712.3 0 0 0 19712.3)
(20577.7 0 0 0 20577.7 0 0 0 20577.7)
(21436.4 0 0 0 21436.4 0 0 0 21436.4)
(22292 0 0 0 22292 0 0 0 22292)
(23149.3 0 0 0 23149.3 0 0 0 23149.3)
(24009.8 0 0 0 24009.8 0 0 0 24009.8)
(24874 0 0 0 24874 0 0 0 24874)
(25742.1 0 0 0 25742.1 0 0 0 25742.1)
(26614.2 0 0 0 26614.2 0 0 0 26614.2)
(27489.8 0 0 0 27489.8 0 0 0 27489.8)
(28368.7 0 0 0 28368.7 0 0 0 28368.7)
(29250.7 0 0 0 29250.7 0 0 0 29250.7)
(30135.3 0 0 0 30135.3 0 0 0 30135.3)
(31022.2 0 0 0 31022.2 0 0 0 31022.2)
(31911.1 0 0 0 31911.1 0 0 0 31911.1)
(32801.7 0 0 0 32801.7 0 0 0 32801.7)
(33692.9 0 0 0 33692.9 0 0 0 33692.9)
(34587 0 0 0 34587 0 0 0 34587)
(35474.2 0 0 0 35474.2 0 0 0 35474.2)
(36388.5 0 0 0 36388.5 0 0 0 36388.5)
(37204.1 0 0 0 37204.1 0 0 0 37204.1)
(38375.1 0 0 0 38375.1 0 0 0 38375.1)
)
;

boundaryField
{
    inlet
    {
        type            zeroGradient;
    }
    outlet
    {
        type            zeroGradient;
    }
    fixedWalls
    {
        type            zeroGradient;
    }
}


// ************************************************************************* //
