/*--------------------------------*- C++ -*----------------------------------*\
| =========                 |                                                 |
| \\      /  F ield         | OpenFOAM: The Open Source CFD Toolbox           |
|  \\    /   O peration     | Version:  2406                                  |
|   \\  /    A nd           | Website:  www.openfoam.com                      |
|    \\/     M anipulation  |                                                 |
\*---------------------------------------------------------------------------*/
FoamFile
{
    version     2.0;
    format      ascii;
    arch        "LSB;label=32;scalar=64";
    class       volScalarField;
    location    "0.6/fluidRegion";
    object      p;
}
// * * * * * * * * * * * * * * * * * * * * * * * * * * * * * * * * * * * * * //

dimensions      [1 -1 -2 0 0 0 0];

internalField   nonuniform List<scalar> 
75
(
1.47779e+07
1.47778e+07
1.47778e+07
1.47777e+07
1.47777e+07
1.47776e+07
1.47775e+07
1.47775e+07
1.47774e+07
1.47773e+07
1.47772e+07
1.47772e+07
1.47771e+07
1.4777e+07
1.47769e+07
1.47768e+07
1.47767e+07
1.47766e+07
1.47764e+07
1.47763e+07
1.47761e+07
1.47759e+07
1.47757e+07
1.47755e+07
1.47753e+07
1.4775e+07
1.47747e+07
1.47744e+07
1.4774e+07
1.47737e+07
1.47732e+07
1.47728e+07
1.47723e+07
1.47718e+07
1.47712e+07
1.47707e+07
1.47701e+07
1.47694e+07
1.47687e+07
1.4768e+07
1.47673e+07
1.47665e+07
1.47657e+07
1.47649e+07
1.4764e+07
1.47632e+07
1.47622e+07
1.47613e+07
1.47603e+07
1.47593e+07
1.47583e+07
1.47572e+07
1.47561e+07
1.4755e+07
1.47539e+07
1.47527e+07
1.47514e+07
1.47501e+07
1.47488e+07
1.47474e+07
1.4746e+07
1.47445e+07
1.4743e+07
1.47414e+07
1.47398e+07
1.47381e+07
1.47364e+07
1.47346e+07
1.47328e+07
1.47309e+07
1.4729e+07
1.47271e+07
1.47251e+07
1.4723e+07
1.47209e+07
)
;

boundaryField
{
    inlet
    {
        type            calculated;
        value           uniform 1.47779e+07;
    }
    outlet
    {
        type            calculated;
        value           uniform 1.47198e+07;
    }
    fixedWalls
    {
        type            calculated;
        value           nonuniform List<scalar> 
300
(
1.47779e+07
1.47778e+07
1.47778e+07
1.47777e+07
1.47777e+07
1.47776e+07
1.47775e+07
1.47775e+07
1.47774e+07
1.47773e+07
1.47772e+07
1.47772e+07
1.47771e+07
1.4777e+07
1.47769e+07
1.47768e+07
1.47767e+07
1.47766e+07
1.47764e+07
1.47763e+07
1.47761e+07
1.47759e+07
1.47757e+07
1.47755e+07
1.47753e+07
1.4775e+07
1.47747e+07
1.47744e+07
1.4774e+07
1.47737e+07
1.47732e+07
1.47728e+07
1.47723e+07
1.47718e+07
1.47712e+07
1.47707e+07
1.47701e+07
1.47694e+07
1.47687e+07
1.4768e+07
1.47673e+07
1.47665e+07
1.47657e+07
1.47649e+07
1.4764e+07
1.47632e+07
1.47622e+07
1.47613e+07
1.47603e+07
1.47593e+07
1.47583e+07
1.47572e+07
1.47561e+07
1.4755e+07
1.47539e+07
1.47527e+07
1.47514e+07
1.47501e+07
1.47488e+07
1.47474e+07
1.4746e+07
1.47445e+07
1.4743e+07
1.47414e+07
1.47398e+07
1.47381e+07
1.47364e+07
1.47346e+07
1.47328e+07
1.47309e+07
1.4729e+07
1.47271e+07
1.47251e+07
1.4723e+07
1.47209e+07
1.47779e+07
1.47778e+07
1.47778e+07
1.47777e+07
1.47777e+07
1.47776e+07
1.47775e+07
1.47775e+07
1.47774e+07
1.47773e+07
1.47772e+07
1.47772e+07
1.47771e+07
1.4777e+07
1.47769e+07
1.47768e+07
1.47767e+07
1.47766e+07
1.47764e+07
1.47763e+07
1.47761e+07
1.47759e+07
1.47757e+07
1.47755e+07
1.47753e+07
1.4775e+07
1.47747e+07
1.47744e+07
1.4774e+07
1.47737e+07
1.47732e+07
1.47728e+07
1.47723e+07
1.47718e+07
1.47712e+07
1.47707e+07
1.47701e+07
1.47694e+07
1.47687e+07
1.4768e+07
1.47673e+07
1.47665e+07
1.47657e+07
1.47649e+07
1.4764e+07
1.47632e+07
1.47622e+07
1.47613e+07
1.47603e+07
1.47593e+07
1.47583e+07
1.47572e+07
1.47561e+07
1.4755e+07
1.47539e+07
1.47527e+07
1.47514e+07
1.47501e+07
1.47488e+07
1.47474e+07
1.4746e+07
1.47445e+07
1.4743e+07
1.47414e+07
1.47398e+07
1.47381e+07
1.47364e+07
1.47346e+07
1.47328e+07
1.47309e+07
1.4729e+07
1.47271e+07
1.47251e+07
1.4723e+07
1.47209e+07
1.47779e+07
1.47778e+07
1.47778e+07
1.47777e+07
1.47777e+07
1.47776e+07
1.47775e+07
1.47775e+07
1.47774e+07
1.47773e+07
1.47772e+07
1.47772e+07
1.47771e+07
1.4777e+07
1.47769e+07
1.47768e+07
1.47767e+07
1.47766e+07
1.47764e+07
1.47763e+07
1.47761e+07
1.47759e+07
1.47757e+07
1.47755e+07
1.47753e+07
1.4775e+07
1.47747e+07
1.47744e+07
1.4774e+07
1.47737e+07
1.47732e+07
1.47728e+07
1.47723e+07
1.47718e+07
1.47712e+07
1.47707e+07
1.47701e+07
1.47694e+07
1.47687e+07
1.4768e+07
1.47673e+07
1.47665e+07
1.47657e+07
1.47649e+07
1.4764e+07
1.47632e+07
1.47622e+07
1.47613e+07
1.47603e+07
1.47593e+07
1.47583e+07
1.47572e+07
1.47561e+07
1.4755e+07
1.47539e+07
1.47527e+07
1.47514e+07
1.47501e+07
1.47488e+07
1.47474e+07
1.4746e+07
1.47445e+07
1.4743e+07
1.47414e+07
1.47398e+07
1.47381e+07
1.47364e+07
1.47346e+07
1.47328e+07
1.47309e+07
1.4729e+07
1.47271e+07
1.47251e+07
1.4723e+07
1.47209e+07
1.47779e+07
1.47778e+07
1.47778e+07
1.47777e+07
1.47777e+07
1.47776e+07
1.47775e+07
1.47775e+07
1.47774e+07
1.47773e+07
1.47772e+07
1.47772e+07
1.47771e+07
1.4777e+07
1.47769e+07
1.47768e+07
1.47767e+07
1.47766e+07
1.47764e+07
1.47763e+07
1.47761e+07
1.47759e+07
1.47757e+07
1.47755e+07
1.47753e+07
1.4775e+07
1.47747e+07
1.47744e+07
1.4774e+07
1.47737e+07
1.47732e+07
1.47728e+07
1.47723e+07
1.47718e+07
1.47712e+07
1.47707e+07
1.47701e+07
1.47694e+07
1.47687e+07
1.4768e+07
1.47673e+07
1.47665e+07
1.47657e+07
1.47649e+07
1.4764e+07
1.47632e+07
1.47622e+07
1.47613e+07
1.47603e+07
1.47593e+07
1.47583e+07
1.47572e+07
1.47561e+07
1.4755e+07
1.47539e+07
1.47527e+07
1.47514e+07
1.47501e+07
1.47488e+07
1.47474e+07
1.4746e+07
1.47445e+07
1.4743e+07
1.47414e+07
1.47398e+07
1.47381e+07
1.47364e+07
1.47346e+07
1.47328e+07
1.47309e+07
1.4729e+07
1.47271e+07
1.47251e+07
1.4723e+07
1.47209e+07
)
;
    }
}


// ************************************************************************* //
