/*--------------------------------*- C++ -*----------------------------------*\
| =========                 |                                                 |
| \\      /  F ield         | OpenFOAM: The Open Source CFD Toolbox           |
|  \\    /   O peration     | Version:  2406                                  |
|   \\  /    A nd           | Website:  www.openfoam.com                      |
|    \\/     M anipulation  |                                                 |
\*---------------------------------------------------------------------------*/
FoamFile
{
    version     2.0;
    format      ascii;
    arch        "LSB;label=32;scalar=64";
    class       volScalarField;
    location    "0.6/fluidRegion";
    object      dgdt.vapour;
}
// * * * * * * * * * * * * * * * * * * * * * * * * * * * * * * * * * * * * * //

dimensions      [0 0 -1 0 0 0 0];

internalField   nonuniform List<scalar> 
70
(
-0
-0
-0
-0
-0
-0
-0
-0
-0
-0
-0
-0
-0
-0
-0
-0
-0
-0
-0
-0
-0
-0
1.00503e-07
5.1456e-08
-4.23739e-07
-2.78304e-07
-2.28077e-07
-2.01759e-07
-1.84609e-07
-1.71492e-07
-1.60711e-07
-1.51269e-07
-1.43411e-07
-1.36458e-07
-1.30238e-07
-1.2449e-07
-1.19217e-07
-1.14632e-07
0.000149188
0.000817824
-0.000128731
-0.000119741
-0.000108288
-9.54374e-05
-8.19731e-05
-6.82247e-05
-5.47266e-05
-4.21434e-05
-3.10889e-05
-2.19554e-05
-1.48693e-05
-9.6973e-06
-6.13006e-06
-3.80585e-06
-2.37224e-06
-1.5298e-06
-1.02508e-06
-7.02434e-07
-5.07742e-07
-4.17748e-07
-3.88238e-07
-3.90885e-07
-4.00791e-07
-4.16401e-07
-4.42438e-07
-4.75341e-07
-5.06513e-07
-5.54041e-07
-6.17982e-07
-6.91977e-07
)
;

boundaryField
{
    inlet
    {
        type            calculated;
        value           uniform -0;
    }
    outlet
    {
        type            calculated;
        value           uniform -6.91977e-07;
    }
    fixedWalls
    {
        type            calculated;
        value           nonuniform List<scalar> 
280
(
-0
-0
-0
-0
-0
-0
-0
-0
-0
-0
-0
-0
-0
-0
-0
-0
-0
-0
-0
-0
-0
-0
1.00503e-07
5.1456e-08
-4.23739e-07
-2.78304e-07
-2.28077e-07
-2.01759e-07
-1.84609e-07
-1.71492e-07
-1.60711e-07
-1.51269e-07
-1.43411e-07
-1.36458e-07
-1.30238e-07
-1.2449e-07
-1.19217e-07
-1.14632e-07
0.000149188
0.000817824
-0.000128731
-0.000119741
-0.000108288
-9.54374e-05
-8.19731e-05
-6.82247e-05
-5.47266e-05
-4.21434e-05
-3.10889e-05
-2.19554e-05
-1.48693e-05
-9.6973e-06
-6.13006e-06
-3.80585e-06
-2.37224e-06
-1.5298e-06
-1.02508e-06
-7.02434e-07
-5.07742e-07
-4.17748e-07
-3.88238e-07
-3.90885e-07
-4.00791e-07
-4.16401e-07
-4.42438e-07
-4.75341e-07
-5.06513e-07
-5.54041e-07
-6.17982e-07
-6.91977e-07
-0
-0
-0
-0
-0
-0
-0
-0
-0
-0
-0
-0
-0
-0
-0
-0
-0
-0
-0
-0
-0
-0
1.00503e-07
5.1456e-08
-4.23739e-07
-2.78304e-07
-2.28077e-07
-2.01759e-07
-1.84609e-07
-1.71492e-07
-1.60711e-07
-1.51269e-07
-1.43411e-07
-1.36458e-07
-1.30238e-07
-1.2449e-07
-1.19217e-07
-1.14632e-07
0.000149188
0.000817824
-0.000128731
-0.000119741
-0.000108288
-9.54374e-05
-8.19731e-05
-6.82247e-05
-5.47266e-05
-4.21434e-05
-3.10889e-05
-2.19554e-05
-1.48693e-05
-9.6973e-06
-6.13006e-06
-3.80585e-06
-2.37224e-06
-1.5298e-06
-1.02508e-06
-7.02434e-07
-5.07742e-07
-4.17748e-07
-3.88238e-07
-3.90885e-07
-4.00791e-07
-4.16401e-07
-4.42438e-07
-4.75341e-07
-5.06513e-07
-5.54041e-07
-6.17982e-07
-6.91977e-07
-0
-0
-0
-0
-0
-0
-0
-0
-0
-0
-0
-0
-0
-0
-0
-0
-0
-0
-0
-0
-0
-0
1.00503e-07
5.1456e-08
-4.23739e-07
-2.78304e-07
-2.28077e-07
-2.01759e-07
-1.84609e-07
-1.71492e-07
-1.60711e-07
-1.51269e-07
-1.43411e-07
-1.36458e-07
-1.30238e-07
-1.2449e-07
-1.19217e-07
-1.14632e-07
0.000149188
0.000817824
-0.000128731
-0.000119741
-0.000108288
-9.54374e-05
-8.19731e-05
-6.82247e-05
-5.47266e-05
-4.21434e-05
-3.10889e-05
-2.19554e-05
-1.48693e-05
-9.6973e-06
-6.13006e-06
-3.80585e-06
-2.37224e-06
-1.5298e-06
-1.02508e-06
-7.02434e-07
-5.07742e-07
-4.17748e-07
-3.88238e-07
-3.90885e-07
-4.00791e-07
-4.16401e-07
-4.42438e-07
-4.75341e-07
-5.06513e-07
-5.54041e-07
-6.17982e-07
-6.91977e-07
-0
-0
-0
-0
-0
-0
-0
-0
-0
-0
-0
-0
-0
-0
-0
-0
-0
-0
-0
-0
-0
-0
1.00503e-07
5.1456e-08
-4.23739e-07
-2.78304e-07
-2.28077e-07
-2.01759e-07
-1.84609e-07
-1.71492e-07
-1.60711e-07
-1.51269e-07
-1.43411e-07
-1.36458e-07
-1.30238e-07
-1.2449e-07
-1.19217e-07
-1.14632e-07
0.000149188
0.000817824
-0.000128731
-0.000119741
-0.000108288
-9.54374e-05
-8.19731e-05
-6.82247e-05
-5.47266e-05
-4.21434e-05
-3.10889e-05
-2.19554e-05
-1.48693e-05
-9.6973e-06
-6.13006e-06
-3.80585e-06
-2.37224e-06
-1.5298e-06
-1.02508e-06
-7.02434e-07
-5.07742e-07
-4.17748e-07
-3.88238e-07
-3.90885e-07
-4.00791e-07
-4.16401e-07
-4.42438e-07
-4.75341e-07
-5.06513e-07
-5.54041e-07
-6.17982e-07
-6.91977e-07
)
;
    }
}


// ************************************************************************* //
