/*--------------------------------*- C++ -*----------------------------------*\
| =========                 |                                                 |
| \\      /  F ield         | OpenFOAM: The Open Source CFD Toolbox           |
|  \\    /   O peration     | Version:  2406                                  |
|   \\  /    A nd           | Website:  www.openfoam.com                      |
|    \\/     M anipulation  |                                                 |
\*---------------------------------------------------------------------------*/
FoamFile
{
    version     2.0;
    format      ascii;
    arch        "LSB;label=32;scalar=64";
    class       volTensorField;
    location    "0.6/fluidRegion";
    object      Kd.liquid.structure;
}
// * * * * * * * * * * * * * * * * * * * * * * * * * * * * * * * * * * * * * //

dimensions      [1 -3 -1 0 0 0 0];

internalField   nonuniform List<tensor> 
70
(
(1136.13 0 0 0 1136.13 0 0 0 1136.13)
(1136.02 0 0 0 1136.02 0 0 0 1136.02)
(1135.89 0 0 0 1135.89 0 0 0 1135.89)
(1135.72 0 0 0 1135.72 0 0 0 1135.72)
(1135.53 0 0 0 1135.53 0 0 0 1135.53)
(1135.31 0 0 0 1135.31 0 0 0 1135.31)
(1135.07 0 0 0 1135.07 0 0 0 1135.07)
(1134.8 0 0 0 1134.8 0 0 0 1134.8)
(1134.51 0 0 0 1134.51 0 0 0 1134.51)
(1134.19 0 0 0 1134.19 0 0 0 1134.19)
(1133.84 0 0 0 1133.84 0 0 0 1133.84)
(1133.47 0 0 0 1133.47 0 0 0 1133.47)
(1133.08 0 0 0 1133.08 0 0 0 1133.08)
(1132.67 0 0 0 1132.67 0 0 0 1132.67)
(1132.23 0 0 0 1132.23 0 0 0 1132.23)
(1131.78 0 0 0 1131.78 0 0 0 1131.78)
(1131.3 0 0 0 1131.3 0 0 0 1131.3)
(1130.8 0 0 0 1130.8 0 0 0 1130.8)
(1130.29 0 0 0 1130.29 0 0 0 1130.29)
(1129.76 0 0 0 1129.76 0 0 0 1129.76)
(1129.21 0 0 0 1129.21 0 0 0 1129.21)
(1128.64 0 0 0 1128.64 0 0 0 1128.64)
(1128.06 0 0 0 1128.06 0 0 0 1128.06)
(1127.47 0 0 0 1127.47 0 0 0 1127.47)
(1126.86 0 0 0 1126.86 0 0 0 1126.86)
(1126.24 0 0 0 1126.24 0 0 0 1126.24)
(1125.61 0 0 0 1125.61 0 0 0 1125.61)
(1124.98 0 0 0 1124.98 0 0 0 1124.98)
(1124.36 0 0 0 1124.36 0 0 0 1124.36)
(1123.75 0 0 0 1123.75 0 0 0 1123.75)
(1123.15 0 0 0 1123.15 0 0 0 1123.15)
(1122.55 0 0 0 1122.55 0 0 0 1122.55)
(1121.93 0 0 0 1121.93 0 0 0 1121.93)
(1121.29 0 0 0 1121.29 0 0 0 1121.29)
(1120.61 0 0 0 1120.61 0 0 0 1120.61)
(1119.9 0 0 0 1119.9 0 0 0 1119.9)
(1119.15 0 0 0 1119.15 0 0 0 1119.15)
(1118.39 0 0 0 1118.39 0 0 0 1118.39)
(1117.62 0 0 0 1117.62 0 0 0 1117.62)
(1116.84 0 0 0 1116.84 0 0 0 1116.84)
(1116.09 0 0 0 1116.09 0 0 0 1116.09)
(1115.34 0 0 0 1115.34 0 0 0 1115.34)
(1114.59 0 0 0 1114.59 0 0 0 1114.59)
(1113.83 0 0 0 1113.83 0 0 0 1113.83)
(1113.06 0 0 0 1113.06 0 0 0 1113.06)
(1112.3 0 0 0 1112.3 0 0 0 1112.3)
(1111.56 0 0 0 1111.56 0 0 0 1111.56)
(1110.86 0 0 0 1110.86 0 0 0 1110.86)
(1110.24 0 0 0 1110.24 0 0 0 1110.24)
(1109.7 0 0 0 1109.7 0 0 0 1109.7)
(1109.25 0 0 0 1109.25 0 0 0 1109.25)
(1108.88 0 0 0 1108.88 0 0 0 1108.88)
(1108.57 0 0 0 1108.57 0 0 0 1108.57)
(1108.31 0 0 0 1108.31 0 0 0 1108.31)
(1108.08 0 0 0 1108.08 0 0 0 1108.08)
(1107.85 0 0 0 1107.85 0 0 0 1107.85)
(1107.63 0 0 0 1107.63 0 0 0 1107.63)
(1107.41 0 0 0 1107.41 0 0 0 1107.41)
(1107.19 0 0 0 1107.19 0 0 0 1107.19)
(1106.97 0 0 0 1106.97 0 0 0 1106.97)
(1106.75 0 0 0 1106.75 0 0 0 1106.75)
(1106.55 0 0 0 1106.55 0 0 0 1106.55)
(1106.37 0 0 0 1106.37 0 0 0 1106.37)
(1106.2 0 0 0 1106.2 0 0 0 1106.2)
(1106.06 0 0 0 1106.06 0 0 0 1106.06)
(1105.95 0 0 0 1105.95 0 0 0 1105.95)
(1105.87 0 0 0 1105.87 0 0 0 1105.87)
(1105.83 0 0 0 1105.83 0 0 0 1105.83)
(1105.83 0 0 0 1105.83 0 0 0 1105.83)
(1105.88 0 0 0 1105.88 0 0 0 1105.88)
)
;

boundaryField
{
    inlet
    {
        type            zeroGradient;
    }
    outlet
    {
        type            zeroGradient;
    }
    fixedWalls
    {
        type            zeroGradient;
    }
}


// ************************************************************************* //
