/*--------------------------------*- C++ -*----------------------------------*\
| =========                 |                                                 |
| \\      /  F ield         | OpenFOAM: The Open Source CFD Toolbox           |
|  \\    /   O peration     | Version:  2406                                  |
|   \\  /    A nd           | Website:  www.openfoam.com                      |
|    \\/     M anipulation  |                                                 |
\*---------------------------------------------------------------------------*/
FoamFile
{
    version     2.0;
    format      ascii;
    arch        "LSB;label=32;scalar=64";
    class       volTensorField;
    location    "0.6/fluidRegion";
    object      KdTotU;
}
// * * * * * * * * * * * * * * * * * * * * * * * * * * * * * * * * * * * * * //

dimensions      [1 -2 -2 0 0 0 0];

internalField   nonuniform List<tensor> 
70
(
(5075.47 0 0 0 5075.47 0 0 0 5075.47)
(5075.73 0 0 0 5075.73 0 0 0 5075.73)
(5076.3 0 0 0 5076.3 0 0 0 5076.3)
(5077.18 0 0 0 5077.18 0 0 0 5077.18)
(5078.32 0 0 0 5078.32 0 0 0 5078.32)
(5079.74 0 0 0 5079.74 0 0 0 5079.74)
(5081.42 0 0 0 5081.42 0 0 0 5081.42)
(5083.36 0 0 0 5083.36 0 0 0 5083.36)
(5085.55 0 0 0 5085.55 0 0 0 5085.55)
(5088 0 0 0 5088 0 0 0 5088)
(5090.69 0 0 0 5090.69 0 0 0 5090.69)
(5093.63 0 0 0 5093.63 0 0 0 5093.63)
(5096.82 0 0 0 5096.82 0 0 0 5096.82)
(5100.24 0 0 0 5100.24 0 0 0 5100.24)
(5103.89 0 0 0 5103.89 0 0 0 5103.89)
(5107.78 0 0 0 5107.78 0 0 0 5107.78)
(5111.89 0 0 0 5111.89 0 0 0 5111.89)
(5116.22 0 0 0 5116.22 0 0 0 5116.22)
(5120.76 0 0 0 5120.76 0 0 0 5120.76)
(5125.5 0 0 0 5125.5 0 0 0 5125.5)
(5130.44 0 0 0 5130.44 0 0 0 5130.44)
(5135.57 0 0 0 5135.57 0 0 0 5135.57)
(5140.87 0 0 0 5140.87 0 0 0 5140.87)
(5146.35 0 0 0 5146.35 0 0 0 5146.35)
(5151.99 0 0 0 5151.99 0 0 0 5151.99)
(5157.78 0 0 0 5157.78 0 0 0 5157.78)
(5163.73 0 0 0 5163.73 0 0 0 5163.73)
(5169.85 0 0 0 5169.85 0 0 0 5169.85)
(5176.17 0 0 0 5176.17 0 0 0 5176.17)
(5182.68 0 0 0 5182.68 0 0 0 5182.68)
(5189.37 0 0 0 5189.37 0 0 0 5189.37)
(5196.18 0 0 0 5196.18 0 0 0 5196.18)
(5203.01 0 0 0 5203.01 0 0 0 5203.01)
(5209.78 0 0 0 5209.78 0 0 0 5209.78)
(5216.45 0 0 0 5216.45 0 0 0 5216.45)
(5223 0 0 0 5223 0 0 0 5223)
(5229.43 0 0 0 5229.43 0 0 0 5229.43)
(5235.78 0 0 0 5235.78 0 0 0 5235.78)
(5242.08 0 0 0 5242.08 0 0 0 5242.08)
(5248.31 0 0 0 5248.31 0 0 0 5248.31)
(5254.61 0 0 0 5254.61 0 0 0 5254.61)
(5260.81 0 0 0 5260.81 0 0 0 5260.81)
(5266.92 0 0 0 5266.92 0 0 0 5266.92)
(5272.88 0 0 0 5272.88 0 0 0 5272.88)
(5278.67 0 0 0 5278.67 0 0 0 5278.67)
(5284.32 0 0 0 5284.32 0 0 0 5284.32)
(5289.9 0 0 0 5289.9 0 0 0 5289.9)
(5295.51 0 0 0 5295.51 0 0 0 5295.51)
(5301.25 0 0 0 5301.25 0 0 0 5301.25)
(5307.17 0 0 0 5307.17 0 0 0 5307.17)
(5313.27 0 0 0 5313.27 0 0 0 5313.27)
(5319.49 0 0 0 5319.49 0 0 0 5319.49)
(5325.74 0 0 0 5325.74 0 0 0 5325.74)
(5331.91 0 0 0 5331.91 0 0 0 5331.91)
(5337.89 0 0 0 5337.89 0 0 0 5337.89)
(5343.6 0 0 0 5343.6 0 0 0 5343.6)
(5348.98 0 0 0 5348.98 0 0 0 5348.98)
(5354 0 0 0 5354 0 0 0 5354)
(5358.64 0 0 0 5358.64 0 0 0 5358.64)
(5362.92 0 0 0 5362.92 0 0 0 5362.92)
(5366.83 0 0 0 5366.83 0 0 0 5366.83)
(5370.4 0 0 0 5370.4 0 0 0 5370.4)
(5373.63 0 0 0 5373.63 0 0 0 5373.63)
(5376.54 0 0 0 5376.54 0 0 0 5376.54)
(5379.14 0 0 0 5379.14 0 0 0 5379.14)
(5381.42 0 0 0 5381.42 0 0 0 5381.42)
(5383.4 0 0 0 5383.4 0 0 0 5383.4)
(5385.08 0 0 0 5385.08 0 0 0 5385.08)
(5386.42 0 0 0 5386.42 0 0 0 5386.42)
(5387.39 0 0 0 5387.39 0 0 0 5387.39)
)
;

boundaryField
{
    inlet
    {
        type            zeroGradient;
    }
    outlet
    {
        type            zeroGradient;
    }
    fixedWalls
    {
        type            zeroGradient;
    }
}


// ************************************************************************* //
