/*--------------------------------*- C++ -*----------------------------------*\
| =========                 |                                                 |
| \\      /  F ield         | OpenFOAM: The Open Source CFD Toolbox           |
|  \\    /   O peration     | Version:  2406                                  |
|   \\  /    A nd           | Website:  www.openfoam.com                      |
|    \\/     M anipulation  |                                                 |
\*---------------------------------------------------------------------------*/
FoamFile
{
    version     2.0;
    format      ascii;
    arch        "LSB;label=32;scalar=64";
    class       volScalarField;
    location    "30/fluidRegion";
    object      alphaRhoMagU.vapour;
}
// * * * * * * * * * * * * * * * * * * * * * * * * * * * * * * * * * * * * * //

dimensions      [1 -2 -1 0 0 0 0];

internalField   nonuniform List<scalar> 
70
(
0
0.122993
0.560273
1.31595
2.51514
4.31732
6.88206
10.4987
14.7456
19.2801
23.9254
28.637
33.4089
38.2379
43.1252
48.0765
53.091
58.168
63.2073
68.1831
73.2004
78.2335
83.2908
88.3712
93.4758
98.6047
103.758
108.934
114.134
119.356
124.598
129.861
135.143
140.443
145.76
151.093
156.44
161.801
167.175
172.56
177.956
183.361
188.776
194.198
199.627
205.063
210.504
215.95
221.4
226.854
232.31
237.77
243.231
248.693
254.155
259.619
265.086
270.552
276.008
281.469
286.937
292.416
297.848
303.313
308.735
314.298
319.603
325.271
330.291
336.574
)
;

boundaryField
{
    inlet
    {
        type            calculated;
        value           uniform 0;
    }
    outlet
    {
        type            calculated;
        value           uniform 336.403;
    }
    fixedWalls
    {
        type            calculated;
        value           nonuniform List<scalar> 
280
(
0
0.122993
0.560273
1.31595
2.51514
4.31732
6.88206
10.4987
14.7456
19.2801
23.9254
28.637
33.4089
38.2379
43.1252
48.0765
53.091
58.168
63.2073
68.1831
73.2004
78.2335
83.2908
88.3712
93.4758
98.6047
103.758
108.934
114.134
119.356
124.598
129.861
135.143
140.443
145.76
151.093
156.44
161.801
167.175
172.56
177.956
183.361
188.776
194.198
199.627
205.063
210.504
215.95
221.4
226.854
232.31
237.77
243.231
248.693
254.155
259.619
265.086
270.552
276.008
281.469
286.937
292.416
297.848
303.313
308.735
314.298
319.603
325.271
330.291
336.574
0
0.122993
0.560273
1.31595
2.51514
4.31732
6.88206
10.4987
14.7456
19.2801
23.9254
28.637
33.4089
38.2379
43.1252
48.0765
53.091
58.168
63.2073
68.1831
73.2004
78.2335
83.2908
88.3712
93.4758
98.6047
103.758
108.934
114.134
119.356
124.598
129.861
135.143
140.443
145.76
151.093
156.44
161.801
167.175
172.56
177.956
183.361
188.776
194.198
199.627
205.063
210.504
215.95
221.4
226.854
232.31
237.77
243.231
248.693
254.155
259.619
265.086
270.552
276.008
281.469
286.937
292.416
297.848
303.313
308.735
314.298
319.603
325.271
330.291
336.574
0
0.122993
0.560273
1.31595
2.51514
4.31732
6.88206
10.4987
14.7456
19.2801
23.9254
28.637
33.4089
38.2379
43.1252
48.0765
53.091
58.168
63.2073
68.1831
73.2004
78.2335
83.2908
88.3712
93.4758
98.6047
103.758
108.934
114.134
119.356
124.598
129.861
135.143
140.443
145.76
151.093
156.44
161.801
167.175
172.56
177.956
183.361
188.776
194.198
199.627
205.063
210.504
215.95
221.4
226.854
232.31
237.77
243.231
248.693
254.155
259.619
265.086
270.552
276.008
281.469
286.937
292.416
297.848
303.313
308.735
314.298
319.603
325.271
330.291
336.574
0
0.122993
0.560273
1.31595
2.51514
4.31732
6.88206
10.4987
14.7456
19.2801
23.9254
28.637
33.4089
38.2379
43.1252
48.0765
53.091
58.168
63.2073
68.1831
73.2004
78.2335
83.2908
88.3712
93.4758
98.6047
103.758
108.934
114.134
119.356
124.598
129.861
135.143
140.443
145.76
151.093
156.44
161.801
167.175
172.56
177.956
183.361
188.776
194.198
199.627
205.063
210.504
215.95
221.4
226.854
232.31
237.77
243.231
248.693
254.155
259.619
265.086
270.552
276.008
281.469
286.937
292.416
297.848
303.313
308.735
314.298
319.603
325.271
330.291
336.574
)
;
    }
}


// ************************************************************************* //
