/*--------------------------------*- C++ -*----------------------------------*\
| =========                 |                                                 |
| \\      /  F ield         | OpenFOAM: The Open Source CFD Toolbox           |
|  \\    /   O peration     | Version:  2406                                  |
|   \\  /    A nd           | Website:  www.openfoam.com                      |
|    \\/     M anipulation  |                                                 |
\*---------------------------------------------------------------------------*/
FoamFile
{
    version     2.0;
    format      ascii;
    arch        "LSB;label=32;scalar=64";
    class       volScalarField;
    location    "30/fluidRegion";
    object      dgdt.vapour;
}
// * * * * * * * * * * * * * * * * * * * * * * * * * * * * * * * * * * * * * //

dimensions      [0 0 -1 0 0 0 0];

internalField   nonuniform List<scalar> 
70
(
-0
0.0994985
0.281922
0.499003
0.800805
1.22195
1.75047
2.52594
2.86254
3.01931
3.06641
3.1035
3.13747
3.16938
3.20422
3.24414
3.28258
3.31901
3.33116
3.27977
3.27892
3.28852
3.30225
3.318
3.33476
3.35199
3.36935
3.38663
3.40368
3.4204
3.43674
3.45265
3.46811
3.4831
3.49762
3.51167
3.52526
3.53839
3.55108
3.56335
3.5752
3.58667
3.59776
3.6085
3.6189
3.629
3.63881
3.64836
3.65767
3.66676
3.67566
3.68438
3.69295
3.70138
3.7097
3.71794
3.72611
3.73419
3.74223
3.75026
3.75834
3.76629
3.77421
3.78213
3.79046
3.79832
3.80649
3.81387
3.82309
3.945
)
;

boundaryField
{
    inlet
    {
        type            calculated;
        value           uniform -0;
    }
    outlet
    {
        type            calculated;
        value           uniform 3.945;
    }
    fixedWalls
    {
        type            calculated;
        value           nonuniform List<scalar> 
280
(
-0
0.0994985
0.281922
0.499003
0.800805
1.22195
1.75047
2.52594
2.86254
3.01931
3.06641
3.1035
3.13747
3.16938
3.20422
3.24414
3.28258
3.31901
3.33116
3.27977
3.27892
3.28852
3.30225
3.318
3.33476
3.35199
3.36935
3.38663
3.40368
3.4204
3.43674
3.45265
3.46811
3.4831
3.49762
3.51167
3.52526
3.53839
3.55108
3.56335
3.5752
3.58667
3.59776
3.6085
3.6189
3.629
3.63881
3.64836
3.65767
3.66676
3.67566
3.68438
3.69295
3.70138
3.7097
3.71794
3.72611
3.73419
3.74223
3.75026
3.75834
3.76629
3.77421
3.78213
3.79046
3.79832
3.80649
3.81387
3.82309
3.945
-0
0.0994985
0.281922
0.499003
0.800805
1.22195
1.75047
2.52594
2.86254
3.01931
3.06641
3.1035
3.13747
3.16938
3.20422
3.24414
3.28258
3.31901
3.33116
3.27977
3.27892
3.28852
3.30225
3.318
3.33476
3.35199
3.36935
3.38663
3.40368
3.4204
3.43674
3.45265
3.46811
3.4831
3.49762
3.51167
3.52526
3.53839
3.55108
3.56335
3.5752
3.58667
3.59776
3.6085
3.6189
3.629
3.63881
3.64836
3.65767
3.66676
3.67566
3.68438
3.69295
3.70138
3.7097
3.71794
3.72611
3.73419
3.74223
3.75026
3.75834
3.76629
3.77421
3.78213
3.79046
3.79832
3.80649
3.81387
3.82309
3.945
-0
0.0994985
0.281922
0.499003
0.800805
1.22195
1.75047
2.52594
2.86254
3.01931
3.06641
3.1035
3.13747
3.16938
3.20422
3.24414
3.28258
3.31901
3.33116
3.27977
3.27892
3.28852
3.30225
3.318
3.33476
3.35199
3.36935
3.38663
3.40368
3.4204
3.43674
3.45265
3.46811
3.4831
3.49762
3.51167
3.52526
3.53839
3.55108
3.56335
3.5752
3.58667
3.59776
3.6085
3.6189
3.629
3.63881
3.64836
3.65767
3.66676
3.67566
3.68438
3.69295
3.70138
3.7097
3.71794
3.72611
3.73419
3.74223
3.75026
3.75834
3.76629
3.77421
3.78213
3.79046
3.79832
3.80649
3.81387
3.82309
3.945
-0
0.0994985
0.281922
0.499003
0.800805
1.22195
1.75047
2.52594
2.86254
3.01931
3.06641
3.1035
3.13747
3.16938
3.20422
3.24414
3.28258
3.31901
3.33116
3.27977
3.27892
3.28852
3.30225
3.318
3.33476
3.35199
3.36935
3.38663
3.40368
3.4204
3.43674
3.45265
3.46811
3.4831
3.49762
3.51167
3.52526
3.53839
3.55108
3.56335
3.5752
3.58667
3.59776
3.6085
3.6189
3.629
3.63881
3.64836
3.65767
3.66676
3.67566
3.68438
3.69295
3.70138
3.7097
3.71794
3.72611
3.73419
3.74223
3.75026
3.75834
3.76629
3.77421
3.78213
3.79046
3.79832
3.80649
3.81387
3.82309
3.945
)
;
    }
}


// ************************************************************************* //
