/*--------------------------------*- C++ -*----------------------------------*\
| =========                 |                                                 |
| \\      /  F ield         | OpenFOAM: The Open Source CFD Toolbox           |
|  \\    /   O peration     | Version:  2406                                  |
|   \\  /    A nd           | Website:  www.openfoam.com                      |
|    \\/     M anipulation  |                                                 |
\*---------------------------------------------------------------------------*/
FoamFile
{
    version     2.0;
    format      ascii;
    arch        "LSB;label=32;scalar=64";
    class       volTensorField;
    location    "30/fluidRegion";
    object      Kd.liquid.structure;
}
// * * * * * * * * * * * * * * * * * * * * * * * * * * * * * * * * * * * * * //

dimensions      [1 -3 -1 0 0 0 0];

internalField   nonuniform List<tensor> 
70
(
(416.284 0 0 0 416.284 0 0 0 416.284)
(437.711 0 0 0 437.711 0 0 0 437.711)
(504.256 0 0 0 504.256 0 0 0 504.256)
(604.824 0 0 0 604.824 0 0 0 604.824)
(746.428 0 0 0 746.428 0 0 0 746.428)
(934.565 0 0 0 934.565 0 0 0 934.565)
(1169.19 0 0 0 1169.19 0 0 0 1169.19)
(1456.74 0 0 0 1456.74 0 0 0 1456.74)
(1753.08 0 0 0 1753.08 0 0 0 1753.08)
(2032.53 0 0 0 2032.53 0 0 0 2032.53)
(2289.97 0 0 0 2289.97 0 0 0 2289.97)
(2528.6 0 0 0 2528.6 0 0 0 2528.6)
(2752.81 0 0 0 2752.81 0 0 0 2752.81)
(2965.77 0 0 0 2965.77 0 0 0 2965.77)
(3169.93 0 0 0 3169.93 0 0 0 3169.93)
(3367.32 0 0 0 3367.32 0 0 0 3367.32)
(3559.35 0 0 0 3559.35 0 0 0 3559.35)
(3746.85 0 0 0 3746.85 0 0 0 3746.85)
(3952.07 0 0 0 3952.07 0 0 0 3952.07)
(4313.63 0 0 0 4313.63 0 0 0 4313.63)
(4685.74 0 0 0 4685.74 0 0 0 4685.74)
(5067.08 0 0 0 5067.08 0 0 0 5067.08)
(5458.97 0 0 0 5458.97 0 0 0 5458.97)
(5861.58 0 0 0 5861.58 0 0 0 5861.58)
(6275.27 0 0 0 6275.27 0 0 0 6275.27)
(6700.27 0 0 0 6700.27 0 0 0 6700.27)
(7136.85 0 0 0 7136.85 0 0 0 7136.85)
(7585.25 0 0 0 7585.25 0 0 0 7585.25)
(8045.74 0 0 0 8045.74 0 0 0 8045.74)
(8518.6 0 0 0 8518.6 0 0 0 8518.6)
(9004.13 0 0 0 9004.13 0 0 0 9004.13)
(9502.65 0 0 0 9502.65 0 0 0 9502.65)
(10014.5 0 0 0 10014.5 0 0 0 10014.5)
(10540.1 0 0 0 10540.1 0 0 0 10540.1)
(11079.8 0 0 0 11079.8 0 0 0 11079.8)
(11634.1 0 0 0 11634.1 0 0 0 11634.1)
(12203.4 0 0 0 12203.4 0 0 0 12203.4)
(12788.3 0 0 0 12788.3 0 0 0 12788.3)
(13389.3 0 0 0 13389.3 0 0 0 13389.3)
(14007 0 0 0 14007 0 0 0 14007)
(14642.1 0 0 0 14642.1 0 0 0 14642.1)
(15295.2 0 0 0 15295.2 0 0 0 15295.2)
(15967.1 0 0 0 15967.1 0 0 0 15967.1)
(16658.5 0 0 0 16658.5 0 0 0 16658.5)
(17370.4 0 0 0 17370.4 0 0 0 17370.4)
(18103.7 0 0 0 18103.7 0 0 0 18103.7)
(18859.4 0 0 0 18859.4 0 0 0 18859.4)
(19638.5 0 0 0 19638.5 0 0 0 19638.5)
(20442.3 0 0 0 20442.3 0 0 0 20442.3)
(21272 0 0 0 21272 0 0 0 21272)
(22128.9 0 0 0 22128.9 0 0 0 22128.9)
(23014.9 0 0 0 23014.9 0 0 0 23014.9)
(23931.6 0 0 0 23931.6 0 0 0 23931.6)
(24880.2 0 0 0 24880.2 0 0 0 24880.2)
(25861.8 0 0 0 25861.8 0 0 0 25861.8)
(26880.5 0 0 0 26880.5 0 0 0 26880.5)
(27940.8 0 0 0 27940.8 0 0 0 27940.8)
(29042.7 0 0 0 29042.7 0 0 0 29042.7)
(30179.6 0 0 0 30179.6 0 0 0 30179.6)
(31363.7 0 0 0 31363.7 0 0 0 31363.7)
(32609 0 0 0 32609 0 0 0 32609)
(33927.3 0 0 0 33927.3 0 0 0 33927.3)
(35263.5 0 0 0 35263.5 0 0 0 35263.5)
(36668 0 0 0 36668 0 0 0 36668)
(38116 0 0 0 38116 0 0 0 38116)
(39783.5 0 0 0 39783.5 0 0 0 39783.5)
(41326.2 0 0 0 41326.2 0 0 0 41326.2)
(43224.1 0 0 0 43224.1 0 0 0 43224.1)
(44635.4 0 0 0 44635.4 0 0 0 44635.4)
(47271 0 0 0 47271 0 0 0 47271)
)
;

boundaryField
{
    inlet
    {
        type            zeroGradient;
    }
    outlet
    {
        type            zeroGradient;
    }
    fixedWalls
    {
        type            zeroGradient;
    }
}


// ************************************************************************* //
