/*--------------------------------*- C++ -*----------------------------------*\
| =========                 |                                                 |
| \\      /  F ield         | OpenFOAM: The Open Source CFD Toolbox           |
|  \\    /   O peration     | Version:  2406                                  |
|   \\  /    A nd           | Website:  www.openfoam.com                      |
|    \\/     M anipulation  |                                                 |
\*---------------------------------------------------------------------------*/
FoamFile
{
    version     2.0;
    format      ascii;
    arch        "LSB;label=32;scalar=64";
    class       volTensorField;
    location    "30/fluidRegion";
    object      KdTotU;
}
// * * * * * * * * * * * * * * * * * * * * * * * * * * * * * * * * * * * * * //

dimensions      [1 -2 -2 0 0 0 0];

internalField   nonuniform List<tensor> 
70
(
(537.404 0 0 0 537.404 0 0 0 537.404)
(568.162 0 0 0 568.162 0 0 0 568.162)
(662.054 0 0 0 662.054 0 0 0 662.054)
(808.814 0 0 0 808.814 0 0 0 808.814)
(1024.65 0 0 0 1024.65 0 0 0 1024.65)
(1328.87 0 0 0 1328.87 0 0 0 1328.87)
(1738.23 0 0 0 1738.23 0 0 0 1738.23)
(2284.86 0 0 0 2284.86 0 0 0 2284.86)
(2910.03 0 0 0 2910.03 0 0 0 2910.03)
(3557.23 0 0 0 3557.23 0 0 0 3557.23)
(4201.85 0 0 0 4201.85 0 0 0 4201.85)
(4837.16 0 0 0 4837.16 0 0 0 4837.16)
(5463.54 0 0 0 5463.54 0 0 0 5463.54)
(6081.42 0 0 0 6081.42 0 0 0 6081.42)
(6691.46 0 0 0 6691.46 0 0 0 6691.46)
(7294.7 0 0 0 7294.7 0 0 0 7294.7)
(7891.51 0 0 0 7891.51 0 0 0 7891.51)
(8481.65 0 0 0 8481.65 0 0 0 8481.65)
(9103.93 0 0 0 9103.93 0 0 0 9103.93)
(10065.5 0 0 0 10065.5 0 0 0 10065.5)
(11035.8 0 0 0 11035.8 0 0 0 11035.8)
(12019.9 0 0 0 12019.9 0 0 0 12019.9)
(13019.9 0 0 0 13019.9 0 0 0 13019.9)
(14035.4 0 0 0 14035.4 0 0 0 14035.4)
(15065.1 0 0 0 15065.1 0 0 0 15065.1)
(16107.7 0 0 0 16107.7 0 0 0 16107.7)
(17161.5 0 0 0 17161.5 0 0 0 17161.5)
(18225.3 0 0 0 18225.3 0 0 0 18225.3)
(19297.4 0 0 0 19297.4 0 0 0 19297.4)
(20376.7 0 0 0 20376.7 0 0 0 20376.7)
(21461.7 0 0 0 21461.7 0 0 0 21461.7)
(22551.3 0 0 0 22551.3 0 0 0 22551.3)
(23644.2 0 0 0 23644.2 0 0 0 23644.2)
(24739.2 0 0 0 24739.2 0 0 0 24739.2)
(25835.4 0 0 0 25835.4 0 0 0 25835.4)
(26931.7 0 0 0 26931.7 0 0 0 26931.7)
(28027 0 0 0 28027 0 0 0 28027)
(29120.5 0 0 0 29120.5 0 0 0 29120.5)
(30211.2 0 0 0 30211.2 0 0 0 30211.2)
(31298.3 0 0 0 31298.3 0 0 0 31298.3)
(32380.9 0 0 0 32380.9 0 0 0 32380.9)
(33458.2 0 0 0 33458.2 0 0 0 33458.2)
(34529.4 0 0 0 34529.4 0 0 0 34529.4)
(35593.9 0 0 0 35593.9 0 0 0 35593.9)
(36650.9 0 0 0 36650.9 0 0 0 36650.9)
(37699.6 0 0 0 37699.6 0 0 0 37699.6)
(38739.5 0 0 0 38739.5 0 0 0 38739.5)
(39769.9 0 0 0 39769.9 0 0 0 39769.9)
(40790.1 0 0 0 40790.1 0 0 0 40790.1)
(41799.7 0 0 0 41799.7 0 0 0 41799.7)
(42797.9 0 0 0 42797.9 0 0 0 42797.9)
(43784.2 0 0 0 43784.2 0 0 0 43784.2)
(44758 0 0 0 44758 0 0 0 44758)
(45719.2 0 0 0 45719.2 0 0 0 45719.2)
(46667 0 0 0 46667 0 0 0 46667)
(47600.6 0 0 0 47600.6 0 0 0 47600.6)
(48518.1 0 0 0 48518.1 0 0 0 48518.1)
(49422.5 0 0 0 49422.5 0 0 0 49422.5)
(50311.3 0 0 0 50311.3 0 0 0 50311.3)
(51188.9 0 0 0 51188.9 0 0 0 51188.9)
(52037.4 0 0 0 52037.4 0 0 0 52037.4)
(52880.9 0 0 0 52880.9 0 0 0 52880.9)
(53685.5 0 0 0 53685.5 0 0 0 53685.5)
(54529.8 0 0 0 54529.8 0 0 0 54529.8)
(55264.9 0 0 0 55264.9 0 0 0 55264.9)
(56119.5 0 0 0 56119.5 0 0 0 56119.5)
(56677.9 0 0 0 56677.9 0 0 0 56677.9)
(57715.7 0 0 0 57715.7 0 0 0 57715.7)
(57914 0 0 0 57914 0 0 0 57914)
(59562.8 0 0 0 59562.8 0 0 0 59562.8)
)
;

boundaryField
{
    inlet
    {
        type            zeroGradient;
    }
    outlet
    {
        type            zeroGradient;
    }
    fixedWalls
    {
        type            zeroGradient;
    }
}


// ************************************************************************* //
