/*--------------------------------*- C++ -*----------------------------------*\
| =========                 |                                                 |
| \\      /  F ield         | OpenFOAM: The Open Source CFD Toolbox           |
|  \\    /   O peration     | Version:  2406                                  |
|   \\  /    A nd           | Website:  www.openfoam.com                      |
|    \\/     M anipulation  |                                                 |
\*---------------------------------------------------------------------------*/
FoamFile
{
    version     2.0;
    format      ascii;
    arch        "LSB;label=32;scalar=64";
    class       volScalarField;
    location    "30/fluidRegion";
    object      p;
}
// * * * * * * * * * * * * * * * * * * * * * * * * * * * * * * * * * * * * * //

dimensions      [1 -1 -2 0 0 0 0];

internalField   nonuniform List<scalar> 
70
(
7.43186e+06
7.4314e+06
7.43092e+06
7.43044e+06
7.42993e+06
7.42939e+06
7.42882e+06
7.42819e+06
7.42749e+06
7.42673e+06
7.42591e+06
7.42503e+06
7.42409e+06
7.42309e+06
7.42204e+06
7.42092e+06
7.41974e+06
7.4185e+06
7.41719e+06
7.4158e+06
7.41431e+06
7.41271e+06
7.411e+06
7.40918e+06
7.40724e+06
7.40519e+06
7.40301e+06
7.40072e+06
7.3983e+06
7.39576e+06
7.39309e+06
7.3903e+06
7.38738e+06
7.38433e+06
7.38115e+06
7.37785e+06
7.37442e+06
7.37086e+06
7.36717e+06
7.36335e+06
7.3594e+06
7.35533e+06
7.35113e+06
7.34681e+06
7.34235e+06
7.33778e+06
7.33308e+06
7.32825e+06
7.32331e+06
7.31824e+06
7.31305e+06
7.30775e+06
7.30232e+06
7.29678e+06
7.29113e+06
7.28536e+06
7.27948e+06
7.27349e+06
7.26739e+06
7.26118e+06
7.25487e+06
7.24846e+06
7.24194e+06
7.23532e+06
7.22861e+06
7.22179e+06
7.21489e+06
7.20789e+06
7.20082e+06
7.19361e+06
)
;

boundaryField
{
    inlet
    {
        type            calculated;
        value           uniform 7.43209e+06;
    }
    outlet
    {
        type            calculated;
        value           uniform 7.18994e+06;
    }
    fixedWalls
    {
        type            calculated;
        value           nonuniform List<scalar> 
280
(
7.43186e+06
7.4314e+06
7.43092e+06
7.43044e+06
7.42993e+06
7.42939e+06
7.42882e+06
7.42819e+06
7.42749e+06
7.42673e+06
7.42591e+06
7.42503e+06
7.42409e+06
7.42309e+06
7.42204e+06
7.42092e+06
7.41974e+06
7.4185e+06
7.41719e+06
7.4158e+06
7.41431e+06
7.41271e+06
7.411e+06
7.40918e+06
7.40724e+06
7.40519e+06
7.40301e+06
7.40072e+06
7.3983e+06
7.39576e+06
7.39309e+06
7.3903e+06
7.38738e+06
7.38433e+06
7.38115e+06
7.37785e+06
7.37442e+06
7.37086e+06
7.36717e+06
7.36335e+06
7.3594e+06
7.35533e+06
7.35113e+06
7.34681e+06
7.34235e+06
7.33778e+06
7.33308e+06
7.32825e+06
7.32331e+06
7.31824e+06
7.31305e+06
7.30775e+06
7.30232e+06
7.29678e+06
7.29113e+06
7.28536e+06
7.27948e+06
7.27349e+06
7.26739e+06
7.26118e+06
7.25487e+06
7.24846e+06
7.24194e+06
7.23532e+06
7.22861e+06
7.22179e+06
7.21489e+06
7.20789e+06
7.20082e+06
7.19361e+06
7.43186e+06
7.4314e+06
7.43092e+06
7.43044e+06
7.42993e+06
7.42939e+06
7.42882e+06
7.42819e+06
7.42749e+06
7.42673e+06
7.42591e+06
7.42503e+06
7.42409e+06
7.42309e+06
7.42204e+06
7.42092e+06
7.41974e+06
7.4185e+06
7.41719e+06
7.4158e+06
7.41431e+06
7.41271e+06
7.411e+06
7.40918e+06
7.40724e+06
7.40519e+06
7.40301e+06
7.40072e+06
7.3983e+06
7.39576e+06
7.39309e+06
7.3903e+06
7.38738e+06
7.38433e+06
7.38115e+06
7.37785e+06
7.37442e+06
7.37086e+06
7.36717e+06
7.36335e+06
7.3594e+06
7.35533e+06
7.35113e+06
7.34681e+06
7.34235e+06
7.33778e+06
7.33308e+06
7.32825e+06
7.32331e+06
7.31824e+06
7.31305e+06
7.30775e+06
7.30232e+06
7.29678e+06
7.29113e+06
7.28536e+06
7.27948e+06
7.27349e+06
7.26739e+06
7.26118e+06
7.25487e+06
7.24846e+06
7.24194e+06
7.23532e+06
7.22861e+06
7.22179e+06
7.21489e+06
7.20789e+06
7.20082e+06
7.19361e+06
7.43186e+06
7.4314e+06
7.43092e+06
7.43044e+06
7.42993e+06
7.42939e+06
7.42882e+06
7.42819e+06
7.42749e+06
7.42673e+06
7.42591e+06
7.42503e+06
7.42409e+06
7.42309e+06
7.42204e+06
7.42092e+06
7.41974e+06
7.4185e+06
7.41719e+06
7.4158e+06
7.41431e+06
7.41271e+06
7.411e+06
7.40918e+06
7.40724e+06
7.40519e+06
7.40301e+06
7.40072e+06
7.3983e+06
7.39576e+06
7.39309e+06
7.3903e+06
7.38738e+06
7.38433e+06
7.38115e+06
7.37785e+06
7.37442e+06
7.37086e+06
7.36717e+06
7.36335e+06
7.3594e+06
7.35533e+06
7.35113e+06
7.34681e+06
7.34235e+06
7.33778e+06
7.33308e+06
7.32825e+06
7.32331e+06
7.31824e+06
7.31305e+06
7.30775e+06
7.30232e+06
7.29678e+06
7.29113e+06
7.28536e+06
7.27948e+06
7.27349e+06
7.26739e+06
7.26118e+06
7.25487e+06
7.24846e+06
7.24194e+06
7.23532e+06
7.22861e+06
7.22179e+06
7.21489e+06
7.20789e+06
7.20082e+06
7.19361e+06
7.43186e+06
7.4314e+06
7.43092e+06
7.43044e+06
7.42993e+06
7.42939e+06
7.42882e+06
7.42819e+06
7.42749e+06
7.42673e+06
7.42591e+06
7.42503e+06
7.42409e+06
7.42309e+06
7.42204e+06
7.42092e+06
7.41974e+06
7.4185e+06
7.41719e+06
7.4158e+06
7.41431e+06
7.41271e+06
7.411e+06
7.40918e+06
7.40724e+06
7.40519e+06
7.40301e+06
7.40072e+06
7.3983e+06
7.39576e+06
7.39309e+06
7.3903e+06
7.38738e+06
7.38433e+06
7.38115e+06
7.37785e+06
7.37442e+06
7.37086e+06
7.36717e+06
7.36335e+06
7.3594e+06
7.35533e+06
7.35113e+06
7.34681e+06
7.34235e+06
7.33778e+06
7.33308e+06
7.32825e+06
7.32331e+06
7.31824e+06
7.31305e+06
7.30775e+06
7.30232e+06
7.29678e+06
7.29113e+06
7.28536e+06
7.27948e+06
7.27349e+06
7.26739e+06
7.26118e+06
7.25487e+06
7.24846e+06
7.24194e+06
7.23532e+06
7.22861e+06
7.22179e+06
7.21489e+06
7.20789e+06
7.20082e+06
7.19361e+06
)
;
    }
}


// ************************************************************************* //
