/*--------------------------------*- C++ -*----------------------------------*\
| =========                 |                                                 |
| \\      /  F ield         | OpenFOAM: The Open Source CFD Toolbox           |
|  \\    /   O peration     | Version:  2406                                  |
|   \\  /    A nd           | Website:  www.openfoam.com                      |
|    \\/     M anipulation  |                                                 |
\*---------------------------------------------------------------------------*/
FoamFile
{
    version     2.0;
    format      ascii;
    arch        "LSB;label=32;scalar=64";
    class       volScalarField;
    location    "30/fluidRegion";
    object      p_rgh;
}
// * * * * * * * * * * * * * * * * * * * * * * * * * * * * * * * * * * * * * //

dimensions      [1 -1 -2 0 0 0 0];

internalField   nonuniform List<scalar> 
70
(
7.43207e+06
7.432e+06
7.43191e+06
7.43179e+06
7.43161e+06
7.43137e+06
7.43103e+06
7.43059e+06
7.43005e+06
7.42943e+06
7.42874e+06
7.42799e+06
7.42718e+06
7.4263e+06
7.42536e+06
7.42436e+06
7.42329e+06
7.42215e+06
7.42096e+06
7.41969e+06
7.41832e+06
7.41685e+06
7.41527e+06
7.41357e+06
7.41176e+06
7.40983e+06
7.40778e+06
7.40561e+06
7.40332e+06
7.4009e+06
7.39836e+06
7.39569e+06
7.39289e+06
7.38997e+06
7.38692e+06
7.38374e+06
7.38043e+06
7.377e+06
7.37343e+06
7.36974e+06
7.36592e+06
7.36197e+06
7.35789e+06
7.35369e+06
7.34936e+06
7.34491e+06
7.34033e+06
7.33563e+06
7.33081e+06
7.32586e+06
7.3208e+06
7.31561e+06
7.31031e+06
7.30489e+06
7.29936e+06
7.29371e+06
7.28795e+06
7.28208e+06
7.27611e+06
7.27002e+06
7.26382e+06
7.25753e+06
7.25114e+06
7.24464e+06
7.23804e+06
7.23133e+06
7.22457e+06
7.21767e+06
7.21074e+06
7.2036e+06
)
;

boundaryField
{
    inlet
    {
        type            fixedFluxPressure;
        gradient        uniform 1062.62;
        value           uniform 7.43209e+06;
    }
    outlet
    {
        type            fixedValue;
        value           uniform 7.2e+06;
    }
    fixedWalls
    {
        type            fixedFluxPressure;
        gradient        nonuniform List<scalar> 
280
(
0
0
0
0
0
0
0
0
0
0
0
1.79638e-16
-1.39011e-17
-1.59048e-16
-1.7678e-16
1.20938e-17
3.39607e-16
-1.13233e-17
-3.31982e-16
3.57085e-16
1.59995e-16
-5.0342e-16
3.72141e-16
1.44115e-16
-3.43485e-16
-6.85161e-19
3.3755e-16
-1.83228e-17
-3.51545e-16
3.4706e-16
3.27414e-16
-3.62869e-16
-3.42389e-16
0
-3.38097e-16
1.86516e-17
-5.65597e-19
3.70362e-16
3.14175e-16
-6.79695e-16
1.8257e-17
6.74671e-16
-7.08057e-16
-3.2602e-16
1.37094e-15
-7.01354e-16
-6.63486e-16
1.35896e-15
1.29652e-20
-6.75874e-16
0
6.90203e-16
-1.76426e-17
-6.87006e-16
6.85492e-16
-1.75133e-17
-6.82594e-16
6.80697e-16
-1.74072e-17
-6.78578e-16
7.12006e-16
-1.6821e-17
-1.36656e-15
1.72494e-17
6.89429e-16
-6.88493e-16
1.71688e-17
6.86095e-16
0
0
0
0
0
0
0
0
0
0
0
0
0
-1.79638e-16
1.39011e-17
1.59048e-16
1.7678e-16
-1.20938e-17
-3.39607e-16
1.13233e-17
3.31982e-16
-3.57085e-16
-1.59995e-16
5.0342e-16
-3.72141e-16
-1.44115e-16
3.43485e-16
6.85161e-19
-3.3755e-16
1.83228e-17
3.51545e-16
-3.4706e-16
-3.27414e-16
3.62869e-16
3.42389e-16
0
3.38097e-16
-1.86516e-17
5.65597e-19
-3.70362e-16
-3.14175e-16
6.79695e-16
-1.8257e-17
-6.74671e-16
7.08057e-16
3.2602e-16
-1.37094e-15
7.01354e-16
6.63486e-16
-1.35896e-15
-1.29652e-20
6.75874e-16
0
-6.90203e-16
1.76426e-17
6.87006e-16
-6.85492e-16
1.75133e-17
6.82594e-16
-6.80697e-16
1.74072e-17
6.78578e-16
-7.12006e-16
1.6821e-17
1.36656e-15
-1.72494e-17
-6.89429e-16
6.88493e-16
-1.71688e-17
-6.86095e-16
0
0
0
0
0
0
0
0
0
0
0
0
0
1.79638e-16
-1.39011e-17
-1.59048e-16
-1.7678e-16
1.20938e-17
3.39607e-16
-1.13233e-17
-3.31982e-16
3.57085e-16
1.59995e-16
-5.0342e-16
3.72141e-16
1.44115e-16
-3.43485e-16
-6.85161e-19
3.3755e-16
-1.83228e-17
-3.51545e-16
3.4706e-16
3.27414e-16
-3.62869e-16
-3.42389e-16
0
-3.38097e-16
1.86516e-17
-5.65597e-19
3.70362e-16
3.14175e-16
-6.79695e-16
1.8257e-17
6.74671e-16
-7.08057e-16
-3.2602e-16
1.37094e-15
-7.01354e-16
-6.63486e-16
1.35896e-15
1.29652e-20
-6.75874e-16
0
6.90203e-16
-1.76426e-17
-6.87006e-16
6.85492e-16
-1.75133e-17
-6.82594e-16
6.80697e-16
-1.74072e-17
-6.78578e-16
7.12006e-16
-1.6821e-17
-1.36656e-15
1.72494e-17
6.89429e-16
-6.88493e-16
1.71688e-17
6.86095e-16
0
0
0
0
0
0
0
0
0
0
0
0
0
-1.79638e-16
1.39011e-17
1.59048e-16
1.7678e-16
-1.20938e-17
-3.39607e-16
1.13233e-17
3.31982e-16
-3.57085e-16
-1.59995e-16
5.0342e-16
-3.72141e-16
-1.44115e-16
3.43485e-16
6.85161e-19
-3.3755e-16
1.83228e-17
3.51545e-16
-3.4706e-16
-3.27414e-16
3.62869e-16
3.42389e-16
0
3.38097e-16
-1.86516e-17
5.65597e-19
-3.70362e-16
-3.14175e-16
6.79695e-16
-1.8257e-17
-6.74671e-16
7.08057e-16
3.2602e-16
-1.37094e-15
7.01354e-16
6.63486e-16
-1.35896e-15
-1.29652e-20
6.75874e-16
0
-6.90203e-16
1.76426e-17
6.87006e-16
-6.85492e-16
1.75133e-17
6.82594e-16
-6.80697e-16
1.74072e-17
6.78578e-16
-7.12006e-16
1.6821e-17
1.36656e-15
-1.72494e-17
-6.89429e-16
6.88493e-16
-1.71688e-17
-6.86095e-16
0
0
)
;
        value           nonuniform List<scalar> 
280
(
7.43207e+06
7.432e+06
7.43191e+06
7.43179e+06
7.43161e+06
7.43137e+06
7.43103e+06
7.43059e+06
7.43005e+06
7.42943e+06
7.42874e+06
7.42799e+06
7.42718e+06
7.4263e+06
7.42536e+06
7.42436e+06
7.42329e+06
7.42215e+06
7.42096e+06
7.41969e+06
7.41832e+06
7.41685e+06
7.41527e+06
7.41357e+06
7.41176e+06
7.40983e+06
7.40778e+06
7.40561e+06
7.40332e+06
7.4009e+06
7.39836e+06
7.39569e+06
7.39289e+06
7.38997e+06
7.38692e+06
7.38374e+06
7.38043e+06
7.377e+06
7.37343e+06
7.36974e+06
7.36592e+06
7.36197e+06
7.35789e+06
7.35369e+06
7.34936e+06
7.34491e+06
7.34033e+06
7.33563e+06
7.33081e+06
7.32586e+06
7.3208e+06
7.31561e+06
7.31031e+06
7.30489e+06
7.29936e+06
7.29371e+06
7.28795e+06
7.28208e+06
7.27611e+06
7.27002e+06
7.26382e+06
7.25753e+06
7.25114e+06
7.24464e+06
7.23804e+06
7.23133e+06
7.22457e+06
7.21767e+06
7.21074e+06
7.2036e+06
7.43207e+06
7.432e+06
7.43191e+06
7.43179e+06
7.43161e+06
7.43137e+06
7.43103e+06
7.43059e+06
7.43005e+06
7.42943e+06
7.42874e+06
7.42799e+06
7.42718e+06
7.4263e+06
7.42536e+06
7.42436e+06
7.42329e+06
7.42215e+06
7.42096e+06
7.41969e+06
7.41832e+06
7.41685e+06
7.41527e+06
7.41357e+06
7.41176e+06
7.40983e+06
7.40778e+06
7.40561e+06
7.40332e+06
7.4009e+06
7.39836e+06
7.39569e+06
7.39289e+06
7.38997e+06
7.38692e+06
7.38374e+06
7.38043e+06
7.377e+06
7.37343e+06
7.36974e+06
7.36592e+06
7.36197e+06
7.35789e+06
7.35369e+06
7.34936e+06
7.34491e+06
7.34033e+06
7.33563e+06
7.33081e+06
7.32586e+06
7.3208e+06
7.31561e+06
7.31031e+06
7.30489e+06
7.29936e+06
7.29371e+06
7.28795e+06
7.28208e+06
7.27611e+06
7.27002e+06
7.26382e+06
7.25753e+06
7.25114e+06
7.24464e+06
7.23804e+06
7.23133e+06
7.22457e+06
7.21767e+06
7.21074e+06
7.2036e+06
7.43207e+06
7.432e+06
7.43191e+06
7.43179e+06
7.43161e+06
7.43137e+06
7.43103e+06
7.43059e+06
7.43005e+06
7.42943e+06
7.42874e+06
7.42799e+06
7.42718e+06
7.4263e+06
7.42536e+06
7.42436e+06
7.42329e+06
7.42215e+06
7.42096e+06
7.41969e+06
7.41832e+06
7.41685e+06
7.41527e+06
7.41357e+06
7.41176e+06
7.40983e+06
7.40778e+06
7.40561e+06
7.40332e+06
7.4009e+06
7.39836e+06
7.39569e+06
7.39289e+06
7.38997e+06
7.38692e+06
7.38374e+06
7.38043e+06
7.377e+06
7.37343e+06
7.36974e+06
7.36592e+06
7.36197e+06
7.35789e+06
7.35369e+06
7.34936e+06
7.34491e+06
7.34033e+06
7.33563e+06
7.33081e+06
7.32586e+06
7.3208e+06
7.31561e+06
7.31031e+06
7.30489e+06
7.29936e+06
7.29371e+06
7.28795e+06
7.28208e+06
7.27611e+06
7.27002e+06
7.26382e+06
7.25753e+06
7.25114e+06
7.24464e+06
7.23804e+06
7.23133e+06
7.22457e+06
7.21767e+06
7.21074e+06
7.2036e+06
7.43207e+06
7.432e+06
7.43191e+06
7.43179e+06
7.43161e+06
7.43137e+06
7.43103e+06
7.43059e+06
7.43005e+06
7.42943e+06
7.42874e+06
7.42799e+06
7.42718e+06
7.4263e+06
7.42536e+06
7.42436e+06
7.42329e+06
7.42215e+06
7.42096e+06
7.41969e+06
7.41832e+06
7.41685e+06
7.41527e+06
7.41357e+06
7.41176e+06
7.40983e+06
7.40778e+06
7.40561e+06
7.40332e+06
7.4009e+06
7.39836e+06
7.39569e+06
7.39289e+06
7.38997e+06
7.38692e+06
7.38374e+06
7.38043e+06
7.377e+06
7.37343e+06
7.36974e+06
7.36592e+06
7.36197e+06
7.35789e+06
7.35369e+06
7.34936e+06
7.34491e+06
7.34033e+06
7.33563e+06
7.33081e+06
7.32586e+06
7.3208e+06
7.31561e+06
7.31031e+06
7.30489e+06
7.29936e+06
7.29371e+06
7.28795e+06
7.28208e+06
7.27611e+06
7.27002e+06
7.26382e+06
7.25753e+06
7.25114e+06
7.24464e+06
7.23804e+06
7.23133e+06
7.22457e+06
7.21767e+06
7.21074e+06
7.2036e+06
)
;
    }
}


// ************************************************************************* //
