/*--------------------------------*- C++ -*----------------------------------*\
| =========                 |                                                 |
| \\      /  F ield         | OpenFOAM: The Open Source CFD Toolbox           |
|  \\    /   O peration     | Version:  2406                                  |
|   \\  /    A nd           | Website:  www.openfoam.com                      |
|    \\/     M anipulation  |                                                 |
\*---------------------------------------------------------------------------*/
FoamFile
{
    version     2.0;
    format      ascii;
    arch        "LSB;label=32;scalar=64";
    class       volScalarField;
    location    "0.6/fluidRegion";
    object      dgdt.vapour;
}
// * * * * * * * * * * * * * * * * * * * * * * * * * * * * * * * * * * * * * //

dimensions      [0 0 -1 0 0 0 0];

internalField   nonuniform List<scalar> 
75
(
-0
-0
-0
-0
-0
-8.83636e-49
-5.32197e-48
-2.50606e-47
-9.95596e-47
-2.91877e-46
-1.12836e-43
0.30673
0.620785
0.905372
1.16931
1.421
1.67194
1.92809
2.19401
2.47271
2.76611
3.07514
3.39985
3.7394
4.09196
5.20406
5.76158
6.12278
6.4031
6.63922
6.84628
7.03181
7.20007
7.35377
7.49481
7.62458
7.74422
7.85464
7.95666
8.05094
8.13783
8.21891
8.24102
8.25955
8.27912
8.29963
8.32105
8.33733
8.33797
8.34471
8.35466
8.36688
8.38094
8.3966
8.41371
8.43213
8.45179
8.47259
8.49447
8.51737
8.54121
8.56594
8.59151
8.61787
8.64497
8.67276
8.7012
8.73026
8.7599
8.7901
8.82076
8.85209
8.88331
8.91674
9.12187
)
;

boundaryField
{
    inlet
    {
        type            calculated;
        value           uniform -0;
    }
    outlet
    {
        type            calculated;
        value           uniform 9.12187;
    }
    fixedWalls
    {
        type            calculated;
        value           nonuniform List<scalar> 
300
(
-0
-0
-0
-0
-0
-8.83636e-49
-5.32197e-48
-2.50606e-47
-9.95596e-47
-2.91877e-46
-1.12836e-43
0.30673
0.620785
0.905372
1.16931
1.421
1.67194
1.92809
2.19401
2.47271
2.76611
3.07514
3.39985
3.7394
4.09196
5.20406
5.76158
6.12278
6.4031
6.63922
6.84628
7.03181
7.20007
7.35377
7.49481
7.62458
7.74422
7.85464
7.95666
8.05094
8.13783
8.21891
8.24102
8.25955
8.27912
8.29963
8.32105
8.33733
8.33797
8.34471
8.35466
8.36688
8.38094
8.3966
8.41371
8.43213
8.45179
8.47259
8.49447
8.51737
8.54121
8.56594
8.59151
8.61787
8.64497
8.67276
8.7012
8.73026
8.7599
8.7901
8.82076
8.85209
8.88331
8.91674
9.12187
-0
-0
-0
-0
-0
-8.83636e-49
-5.32197e-48
-2.50606e-47
-9.95596e-47
-2.91877e-46
-1.12836e-43
0.30673
0.620785
0.905372
1.16931
1.421
1.67194
1.92809
2.19401
2.47271
2.76611
3.07514
3.39985
3.7394
4.09196
5.20406
5.76158
6.12278
6.4031
6.63922
6.84628
7.03181
7.20007
7.35377
7.49481
7.62458
7.74422
7.85464
7.95666
8.05094
8.13783
8.21891
8.24102
8.25955
8.27912
8.29963
8.32105
8.33733
8.33797
8.34471
8.35466
8.36688
8.38094
8.3966
8.41371
8.43213
8.45179
8.47259
8.49447
8.51737
8.54121
8.56594
8.59151
8.61787
8.64497
8.67276
8.7012
8.73026
8.7599
8.7901
8.82076
8.85209
8.88331
8.91674
9.12187
-0
-0
-0
-0
-0
-8.83636e-49
-5.32197e-48
-2.50606e-47
-9.95596e-47
-2.91877e-46
-1.12836e-43
0.30673
0.620785
0.905372
1.16931
1.421
1.67194
1.92809
2.19401
2.47271
2.76611
3.07514
3.39985
3.7394
4.09196
5.20406
5.76158
6.12278
6.4031
6.63922
6.84628
7.03181
7.20007
7.35377
7.49481
7.62458
7.74422
7.85464
7.95666
8.05094
8.13783
8.21891
8.24102
8.25955
8.27912
8.29963
8.32105
8.33733
8.33797
8.34471
8.35466
8.36688
8.38094
8.3966
8.41371
8.43213
8.45179
8.47259
8.49447
8.51737
8.54121
8.56594
8.59151
8.61787
8.64497
8.67276
8.7012
8.73026
8.7599
8.7901
8.82076
8.85209
8.88331
8.91674
9.12187
-0
-0
-0
-0
-0
-8.83636e-49
-5.32197e-48
-2.50606e-47
-9.95596e-47
-2.91877e-46
-1.12836e-43
0.30673
0.620785
0.905372
1.16931
1.421
1.67194
1.92809
2.19401
2.47271
2.76611
3.07514
3.39985
3.7394
4.09196
5.20406
5.76158
6.12278
6.4031
6.63922
6.84628
7.03181
7.20007
7.35377
7.49481
7.62458
7.74422
7.85464
7.95666
8.05094
8.13783
8.21891
8.24102
8.25955
8.27912
8.29963
8.32105
8.33733
8.33797
8.34471
8.35466
8.36688
8.38094
8.3966
8.41371
8.43213
8.45179
8.47259
8.49447
8.51737
8.54121
8.56594
8.59151
8.61787
8.64497
8.67276
8.7012
8.73026
8.7599
8.7901
8.82076
8.85209
8.88331
8.91674
9.12187
)
;
    }
}


// ************************************************************************* //
