/*--------------------------------*- C++ -*----------------------------------*\
| =========                 |                                                 |
| \\      /  F ield         | OpenFOAM: The Open Source CFD Toolbox           |
|  \\    /   O peration     | Version:  2406                                  |
|   \\  /    A nd           | Website:  www.openfoam.com                      |
|    \\/     M anipulation  |                                                 |
\*---------------------------------------------------------------------------*/
FoamFile
{
    version     2.0;
    format      ascii;
    arch        "LSB;label=32;scalar=64";
    class       volScalarField;
    location    "0.6/fluidRegion";
    object      alphaRhoMagU.vapour;
}
// * * * * * * * * * * * * * * * * * * * * * * * * * * * * * * * * * * * * * //

dimensions      [1 -2 -1 0 0 0 0];

internalField   nonuniform List<scalar> 
70
(
0
0
0
0
0
0
0
0
0
0
0
0.335964
1.01725
1.98868
3.22526
4.73338
6.49959
8.52572
10.8147
13.3731
16.2086
19.3298
22.7453
26.4632
30.4893
34.8444
39.9588
45.5728
51.5021
57.6675
64.0312
70.5674
77.2578
84.0873
91.0436
98.1156
105.294
112.569
119.934
127.381
134.888
142.418
149.961
157.517
165.086
172.671
180.27
187.884
195.514
203.16
210.821
218.502
226.157
233.735
241.327
248.977
256.646
264.329
272.023
279.725
287.434
295.151
302.875
310.608
318.348
326.099
333.849
341.649
349.286
357.703
)
;

boundaryField
{
    inlet
    {
        type            calculated;
        value           uniform 0;
    }
    outlet
    {
        type            calculated;
        value           uniform 357.605;
    }
    fixedWalls
    {
        type            calculated;
        value           nonuniform List<scalar> 
280
(
0
0
0
0
0
0
0
0
0
0
0
0.335964
1.01725
1.98868
3.22526
4.73338
6.49959
8.52572
10.8147
13.3731
16.2086
19.3298
22.7453
26.4632
30.4893
34.8444
39.9588
45.5728
51.5021
57.6675
64.0312
70.5674
77.2578
84.0873
91.0436
98.1156
105.294
112.569
119.934
127.381
134.888
142.418
149.961
157.517
165.086
172.671
180.27
187.884
195.514
203.16
210.821
218.502
226.157
233.735
241.327
248.977
256.646
264.329
272.023
279.725
287.434
295.151
302.875
310.608
318.348
326.099
333.849
341.649
349.286
357.703
0
0
0
0
0
0
0
0
0
0
0
0.335964
1.01725
1.98868
3.22526
4.73338
6.49959
8.52572
10.8147
13.3731
16.2086
19.3298
22.7453
26.4632
30.4893
34.8444
39.9588
45.5728
51.5021
57.6675
64.0312
70.5674
77.2578
84.0873
91.0436
98.1156
105.294
112.569
119.934
127.381
134.888
142.418
149.961
157.517
165.086
172.671
180.27
187.884
195.514
203.16
210.821
218.502
226.157
233.735
241.327
248.977
256.646
264.329
272.023
279.725
287.434
295.151
302.875
310.608
318.348
326.099
333.849
341.649
349.286
357.703
0
0
0
0
0
0
0
0
0
0
0
0.335964
1.01725
1.98868
3.22526
4.73338
6.49959
8.52572
10.8147
13.3731
16.2086
19.3298
22.7453
26.4632
30.4893
34.8444
39.9588
45.5728
51.5021
57.6675
64.0312
70.5674
77.2578
84.0873
91.0436
98.1156
105.294
112.569
119.934
127.381
134.888
142.418
149.961
157.517
165.086
172.671
180.27
187.884
195.514
203.16
210.821
218.502
226.157
233.735
241.327
248.977
256.646
264.329
272.023
279.725
287.434
295.151
302.875
310.608
318.348
326.099
333.849
341.649
349.286
357.703
0
0
0
0
0
0
0
0
0
0
0
0.335964
1.01725
1.98868
3.22526
4.73338
6.49959
8.52572
10.8147
13.3731
16.2086
19.3298
22.7453
26.4632
30.4893
34.8444
39.9588
45.5728
51.5021
57.6675
64.0312
70.5674
77.2578
84.0873
91.0436
98.1156
105.294
112.569
119.934
127.381
134.888
142.418
149.961
157.517
165.086
172.671
180.27
187.884
195.514
203.16
210.821
218.502
226.157
233.735
241.327
248.977
256.646
264.329
272.023
279.725
287.434
295.151
302.875
310.608
318.348
326.099
333.849
341.649
349.286
357.703
)
;
    }
}


// ************************************************************************* //
