/*--------------------------------*- C++ -*----------------------------------*\
| =========                 |                                                 |
| \\      /  F ield         | OpenFOAM: The Open Source CFD Toolbox           |
|  \\    /   O peration     | Version:  2406                                  |
|   \\  /    A nd           | Website:  www.openfoam.com                      |
|    \\/     M anipulation  |                                                 |
\*---------------------------------------------------------------------------*/
FoamFile
{
    version     2.0;
    format      ascii;
    arch        "LSB;label=32;scalar=64";
    class       volScalarField;
    location    "0.6/fluidRegion";
    object      dgdt.vapour;
}
// * * * * * * * * * * * * * * * * * * * * * * * * * * * * * * * * * * * * * //

dimensions      [0 0 -1 0 0 0 0];

internalField   nonuniform List<scalar> 
70
(
-0
-1.62419e-40
-7.64562e-40
-2.24034e-39
-5.68698e-39
-1.46985e-38
-3.7362e-38
-2.35697e-36
-4.83305e-35
-3.49494e-34
-4.7179e-33
0.306995
0.584414
0.841451
1.08219
1.31155
1.53738
1.76379
1.99394
2.22991
2.47296
2.72366
2.98196
3.24721
3.51822
3.79328
4.55133
4.92184
5.17398
5.37257
5.54032
5.68725
5.81856
5.93732
6.04552
6.14458
6.23555
6.3193
6.39653
6.46784
6.5164
6.529
6.54192
6.55538
6.57
6.58529
6.6012
6.61767
6.63467
6.65213
6.67003
6.68831
6.707
6.71319
6.71186
6.71668
6.72454
6.73432
6.74553
6.7579
6.77124
6.78546
6.80047
6.8162
6.83262
6.84965
6.86734
6.88533
6.90488
7.00633
)
;

boundaryField
{
    inlet
    {
        type            calculated;
        value           uniform -0;
    }
    outlet
    {
        type            calculated;
        value           uniform 7.00633;
    }
    fixedWalls
    {
        type            calculated;
        value           nonuniform List<scalar> 
280
(
-0
-1.62419e-40
-7.64562e-40
-2.24034e-39
-5.68698e-39
-1.46985e-38
-3.7362e-38
-2.35697e-36
-4.83305e-35
-3.49494e-34
-4.7179e-33
0.306995
0.584414
0.841451
1.08219
1.31155
1.53738
1.76379
1.99394
2.22991
2.47296
2.72366
2.98196
3.24721
3.51822
3.79328
4.55133
4.92184
5.17398
5.37257
5.54032
5.68725
5.81856
5.93732
6.04552
6.14458
6.23555
6.3193
6.39653
6.46784
6.5164
6.529
6.54192
6.55538
6.57
6.58529
6.6012
6.61767
6.63467
6.65213
6.67003
6.68831
6.707
6.71319
6.71186
6.71668
6.72454
6.73432
6.74553
6.7579
6.77124
6.78546
6.80047
6.8162
6.83262
6.84965
6.86734
6.88533
6.90488
7.00633
-0
-1.62419e-40
-7.64562e-40
-2.24034e-39
-5.68698e-39
-1.46985e-38
-3.7362e-38
-2.35697e-36
-4.83305e-35
-3.49494e-34
-4.7179e-33
0.306995
0.584414
0.841451
1.08219
1.31155
1.53738
1.76379
1.99394
2.22991
2.47296
2.72366
2.98196
3.24721
3.51822
3.79328
4.55133
4.92184
5.17398
5.37257
5.54032
5.68725
5.81856
5.93732
6.04552
6.14458
6.23555
6.3193
6.39653
6.46784
6.5164
6.529
6.54192
6.55538
6.57
6.58529
6.6012
6.61767
6.63467
6.65213
6.67003
6.68831
6.707
6.71319
6.71186
6.71668
6.72454
6.73432
6.74553
6.7579
6.77124
6.78546
6.80047
6.8162
6.83262
6.84965
6.86734
6.88533
6.90488
7.00633
-0
-1.62419e-40
-7.64562e-40
-2.24034e-39
-5.68698e-39
-1.46985e-38
-3.7362e-38
-2.35697e-36
-4.83305e-35
-3.49494e-34
-4.7179e-33
0.306995
0.584414
0.841451
1.08219
1.31155
1.53738
1.76379
1.99394
2.22991
2.47296
2.72366
2.98196
3.24721
3.51822
3.79328
4.55133
4.92184
5.17398
5.37257
5.54032
5.68725
5.81856
5.93732
6.04552
6.14458
6.23555
6.3193
6.39653
6.46784
6.5164
6.529
6.54192
6.55538
6.57
6.58529
6.6012
6.61767
6.63467
6.65213
6.67003
6.68831
6.707
6.71319
6.71186
6.71668
6.72454
6.73432
6.74553
6.7579
6.77124
6.78546
6.80047
6.8162
6.83262
6.84965
6.86734
6.88533
6.90488
7.00633
-0
-1.62419e-40
-7.64562e-40
-2.24034e-39
-5.68698e-39
-1.46985e-38
-3.7362e-38
-2.35697e-36
-4.83305e-35
-3.49494e-34
-4.7179e-33
0.306995
0.584414
0.841451
1.08219
1.31155
1.53738
1.76379
1.99394
2.22991
2.47296
2.72366
2.98196
3.24721
3.51822
3.79328
4.55133
4.92184
5.17398
5.37257
5.54032
5.68725
5.81856
5.93732
6.04552
6.14458
6.23555
6.3193
6.39653
6.46784
6.5164
6.529
6.54192
6.55538
6.57
6.58529
6.6012
6.61767
6.63467
6.65213
6.67003
6.68831
6.707
6.71319
6.71186
6.71668
6.72454
6.73432
6.74553
6.7579
6.77124
6.78546
6.80047
6.8162
6.83262
6.84965
6.86734
6.88533
6.90488
7.00633
)
;
    }
}


// ************************************************************************* //
