/*--------------------------------*- C++ -*----------------------------------*\
| =========                 |                                                 |
| \\      /  F ield         | OpenFOAM: The Open Source CFD Toolbox           |
|  \\    /   O peration     | Version:  2406                                  |
|   \\  /    A nd           | Website:  www.openfoam.com                      |
|    \\/     M anipulation  |                                                 |
\*---------------------------------------------------------------------------*/
FoamFile
{
    version     2.0;
    format      ascii;
    arch        "LSB;label=32;scalar=64";
    class       volTensorField;
    location    "0.6/fluidRegion";
    object      Kd.liquid.structure;
}
// * * * * * * * * * * * * * * * * * * * * * * * * * * * * * * * * * * * * * //

dimensions      [1 -3 -1 0 0 0 0];

internalField   nonuniform List<tensor> 
70
(
(1132.93 0 0 0 1132.93 0 0 0 1132.93)
(1131.39 0 0 0 1131.39 0 0 0 1131.39)
(1129.83 0 0 0 1129.83 0 0 0 1129.83)
(1128.28 0 0 0 1128.28 0 0 0 1128.28)
(1126.71 0 0 0 1126.71 0 0 0 1126.71)
(1125.14 0 0 0 1125.14 0 0 0 1125.14)
(1123.56 0 0 0 1123.56 0 0 0 1123.56)
(1121.98 0 0 0 1121.98 0 0 0 1121.98)
(1120.39 0 0 0 1120.39 0 0 0 1120.39)
(1118.79 0 0 0 1118.79 0 0 0 1118.79)
(1117.18 0 0 0 1117.18 0 0 0 1117.18)
(1161.39 0 0 0 1161.39 0 0 0 1161.39)
(1237.9 0 0 0 1237.9 0 0 0 1237.9)
(1336.98 0 0 0 1336.98 0 0 0 1336.98)
(1454.3 0 0 0 1454.3 0 0 0 1454.3)
(1588.71 0 0 0 1588.71 0 0 0 1588.71)
(1737.3 0 0 0 1737.3 0 0 0 1737.3)
(1898.73 0 0 0 1898.73 0 0 0 1898.73)
(2071.81 0 0 0 2071.81 0 0 0 2071.81)
(2255.66 0 0 0 2255.66 0 0 0 2255.66)
(2449.5 0 0 0 2449.5 0 0 0 2449.5)
(2652.63 0 0 0 2652.63 0 0 0 2652.63)
(2864.36 0 0 0 2864.36 0 0 0 2864.36)
(3083.99 0 0 0 3083.99 0 0 0 3083.99)
(3310.77 0 0 0 3310.77 0 0 0 3310.77)
(3544.35 0 0 0 3544.35 0 0 0 3544.35)
(3805.37 0 0 0 3805.37 0 0 0 3805.37)
(4079.47 0 0 0 4079.47 0 0 0 4079.47)
(4355.07 0 0 0 4355.07 0 0 0 4355.07)
(4628.03 0 0 0 4628.03 0 0 0 4628.03)
(4896.91 0 0 0 4896.91 0 0 0 4896.91)
(5161.03 0 0 0 5161.03 0 0 0 5161.03)
(5420.17 0 0 0 5420.17 0 0 0 5420.17)
(5674.26 0 0 0 5674.26 0 0 0 5674.26)
(5923.38 0 0 0 5923.38 0 0 0 5923.38)
(6167.65 0 0 0 6167.65 0 0 0 6167.65)
(6407.21 0 0 0 6407.21 0 0 0 6407.21)
(6642.26 0 0 0 6642.26 0 0 0 6642.26)
(6872.97 0 0 0 6872.97 0 0 0 6872.97)
(7099.54 0 0 0 7099.54 0 0 0 7099.54)
(7321.78 0 0 0 7321.78 0 0 0 7321.78)
(7539.03 0 0 0 7539.03 0 0 0 7539.03)
(7751.3 0 0 0 7751.3 0 0 0 7751.3)
(7958.96 0 0 0 7958.96 0 0 0 7958.96)
(8162.37 0 0 0 8162.37 0 0 0 8162.37)
(8361.86 0 0 0 8361.86 0 0 0 8361.86)
(8557.74 0 0 0 8557.74 0 0 0 8557.74)
(8750.26 0 0 0 8750.26 0 0 0 8750.26)
(8939.68 0 0 0 8939.68 0 0 0 8939.68)
(9126.22 0 0 0 9126.22 0 0 0 9126.22)
(9310.09 0 0 0 9310.09 0 0 0 9310.09)
(9491.34 0 0 0 9491.34 0 0 0 9491.34)
(9671.71 0 0 0 9671.71 0 0 0 9671.71)
(9938.23 0 0 0 9938.23 0 0 0 9938.23)
(10315.8 0 0 0 10315.8 0 0 0 10315.8)
(10698.2 0 0 0 10698.2 0 0 0 10698.2)
(11084.7 0 0 0 11084.7 0 0 0 11084.7)
(11476.1 0 0 0 11476.1 0 0 0 11476.1)
(11872.5 0 0 0 11872.5 0 0 0 11872.5)
(12274.1 0 0 0 12274.1 0 0 0 12274.1)
(12681 0 0 0 12681 0 0 0 12681)
(13093.4 0 0 0 13093.4 0 0 0 13093.4)
(13511.3 0 0 0 13511.3 0 0 0 13511.3)
(13935 0 0 0 13935 0 0 0 13935)
(14364.5 0 0 0 14364.5 0 0 0 14364.5)
(14800.2 0 0 0 14800.2 0 0 0 14800.2)
(15240.7 0 0 0 15240.7 0 0 0 15240.7)
(15693 0 0 0 15693 0 0 0 15693)
(16127.3 0 0 0 16127.3 0 0 0 16127.3)
(16674.4 0 0 0 16674.4 0 0 0 16674.4)
)
;

boundaryField
{
    inlet
    {
        type            zeroGradient;
    }
    outlet
    {
        type            zeroGradient;
    }
    fixedWalls
    {
        type            zeroGradient;
    }
}


// ************************************************************************* //
