/*--------------------------------*- C++ -*----------------------------------*\
| =========                 |                                                 |
| \\      /  F ield         | OpenFOAM: The Open Source CFD Toolbox           |
|  \\    /   O peration     | Version:  2406                                  |
|   \\  /    A nd           | Website:  www.openfoam.com                      |
|    \\/     M anipulation  |                                                 |
\*---------------------------------------------------------------------------*/
FoamFile
{
    version     2.0;
    format      ascii;
    arch        "LSB;label=32;scalar=64";
    class       volTensorField;
    location    "0.6/fluidRegion";
    object      KdTotU;
}
// * * * * * * * * * * * * * * * * * * * * * * * * * * * * * * * * * * * * * //

dimensions      [1 -2 -2 0 0 0 0];

internalField   nonuniform List<tensor> 
70
(
(5071.42 0 0 0 5071.42 0 0 0 5071.42)
(5085.67 0 0 0 5085.67 0 0 0 5085.67)
(5100.15 0 0 0 5100.15 0 0 0 5100.15)
(5114.85 0 0 0 5114.85 0 0 0 5114.85)
(5129.76 0 0 0 5129.76 0 0 0 5129.76)
(5144.88 0 0 0 5144.88 0 0 0 5144.88)
(5160.2 0 0 0 5160.2 0 0 0 5160.2)
(5175.7 0 0 0 5175.7 0 0 0 5175.7)
(5191.38 0 0 0 5191.38 0 0 0 5191.38)
(5207.23 0 0 0 5207.23 0 0 0 5207.23)
(5223.23 0 0 0 5223.23 0 0 0 5223.23)
(5461.31 0 0 0 5461.31 0 0 0 5461.31)
(5867.44 0 0 0 5867.44 0 0 0 5867.44)
(6398.71 0 0 0 6398.71 0 0 0 6398.71)
(7037.7 0 0 0 7037.7 0 0 0 7037.7)
(7782.69 0 0 0 7782.69 0 0 0 7782.69)
(8623.85 0 0 0 8623.85 0 0 0 8623.85)
(9558.98 0 0 0 9558.98 0 0 0 9558.98)
(10586.7 0 0 0 10586.7 0 0 0 10586.7)
(11707 0 0 0 11707 0 0 0 11707)
(12920.6 0 0 0 12920.6 0 0 0 12920.6)
(14228.3 0 0 0 14228.3 0 0 0 14228.3)
(15630.6 0 0 0 15630.6 0 0 0 15630.6)
(17127.9 0 0 0 17127.9 0 0 0 17127.9)
(18719.7 0 0 0 18719.7 0 0 0 18719.7)
(20409 0 0 0 20409 0 0 0 20409)
(22336.2 0 0 0 22336.2 0 0 0 22336.2)
(24427.8 0 0 0 24427.8 0 0 0 24427.8)
(26600.6 0 0 0 26600.6 0 0 0 26600.6)
(28822.1 0 0 0 28822.1 0 0 0 28822.1)
(31076.9 0 0 0 31076.9 0 0 0 31076.9)
(33355.1 0 0 0 33355.1 0 0 0 33355.1)
(35649.7 0 0 0 35649.7 0 0 0 35649.7)
(37955.2 0 0 0 37955.2 0 0 0 37955.2)
(40267.3 0 0 0 40267.3 0 0 0 40267.3)
(42581.9 0 0 0 42581.9 0 0 0 42581.9)
(44895.9 0 0 0 44895.9 0 0 0 44895.9)
(47206.3 0 0 0 47206.3 0 0 0 47206.3)
(49510.4 0 0 0 49510.4 0 0 0 49510.4)
(51806 0 0 0 51806 0 0 0 51806)
(54087.3 0 0 0 54087.3 0 0 0 54087.3)
(56344.3 0 0 0 56344.3 0 0 0 56344.3)
(58573.2 0 0 0 58573.2 0 0 0 58573.2)
(60774.6 0 0 0 60774.6 0 0 0 60774.6)
(62949.1 0 0 0 62949.1 0 0 0 62949.1)
(65097.6 0 0 0 65097.6 0 0 0 65097.6)
(67220.5 0 0 0 67220.5 0 0 0 67220.5)
(69318.2 0 0 0 69318.2 0 0 0 69318.2)
(71391.2 0 0 0 71391.2 0 0 0 71391.2)
(73439.8 0 0 0 73439.8 0 0 0 73439.8)
(75464.4 0 0 0 75464.4 0 0 0 75464.4)
(77465.3 0 0 0 77465.3 0 0 0 77465.3)
(79441.9 0 0 0 79441.9 0 0 0 79441.9)
(82065.9 0 0 0 82065.9 0 0 0 82065.9)
(85524.2 0 0 0 85524.2 0 0 0 85524.2)
(88964 0 0 0 88964 0 0 0 88964)
(92401.8 0 0 0 92401.8 0 0 0 92401.8)
(95851.5 0 0 0 95851.5 0 0 0 95851.5)
(99318.5 0 0 0 99318.5 0 0 0 99318.5)
(102806 0 0 0 102806 0 0 0 102806)
(106314 0 0 0 106314 0 0 0 106314)
(109843 0 0 0 109843 0 0 0 109843)
(113393 0 0 0 113393 0 0 0 113393)
(116962 0 0 0 116962 0 0 0 116962)
(120549 0 0 0 120549 0 0 0 120549)
(124157 0 0 0 124157 0 0 0 124157)
(127768 0 0 0 127768 0 0 0 127768)
(131453 0 0 0 131453 0 0 0 131453)
(134897 0 0 0 134897 0 0 0 134897)
(139464 0 0 0 139464 0 0 0 139464)
)
;

boundaryField
{
    inlet
    {
        type            zeroGradient;
    }
    outlet
    {
        type            zeroGradient;
    }
    fixedWalls
    {
        type            zeroGradient;
    }
}


// ************************************************************************* //
