/*--------------------------------*- C++ -*----------------------------------*\
| =========                 |                                                 |
| \\      /  F ield         | OpenFOAM: The Open Source CFD Toolbox           |
|  \\    /   O peration     | Version:  2406                                  |
|   \\  /    A nd           | Website:  www.openfoam.com                      |
|    \\/     M anipulation  |                                                 |
\*---------------------------------------------------------------------------*/
FoamFile
{
    version     2.0;
    format      ascii;
    arch        "LSB;label=32;scalar=64";
    class       volScalarField;
    location    "0.6/fluidRegion";
    object      T.fixedPower;
}
// * * * * * * * * * * * * * * * * * * * * * * * * * * * * * * * * * * * * * //

dimensions      [0 0 0 1 0 0 0];

internalField   nonuniform List<scalar> 
70
(
619.559
619.557
619.555
619.553
619.55
619.548
619.545
619.543
619.54
619.537
619.534
619.531
619.528
619.525
619.521
619.518
619.513
619.509
619.505
619.5
619.494
619.489
619.483
619.476
619.47
619.462
619.455
619.447
619.438
619.428
619.418
619.408
619.397
619.385
619.373
619.36
619.346
619.332
619.318
619.303
619.287
619.271
619.255
619.238
619.222
619.206
619.189
619.173
619.157
619.141
619.125
619.109
619.094
619.079
619.064
619.05
619.036
619.022
619.009
618.995
618.982
618.97
618.958
618.946
618.934
618.923
618.912
618.901
618.89
618.88
)
;

boundaryField
{
    inlet
    {
        type            zeroGradient;
    }
    outlet
    {
        type            zeroGradient;
    }
    fixedWalls
    {
        type            zeroGradient;
    }
}


// ************************************************************************* //
