/*--------------------------------*- C++ -*----------------------------------*\
| =========                 |                                                 |
| \\      /  F ield         | OpenFOAM: The Open Source CFD Toolbox           |
|  \\    /   O peration     | Version:  2406                                  |
|   \\  /    A nd           | Website:  www.openfoam.com                      |
|    \\/     M anipulation  |                                                 |
\*---------------------------------------------------------------------------*/
FoamFile
{
    version     2.0;
    format      ascii;
    arch        "LSB;label=32;scalar=64";
    class       volTensorField;
    location    "0.6/fluidRegion";
    object      KdTotU;
}
// * * * * * * * * * * * * * * * * * * * * * * * * * * * * * * * * * * * * * //

dimensions      [1 -2 -2 0 0 0 0];

internalField   nonuniform List<tensor> 
70
(
(5070.42 0 0 0 5070.42 0 0 0 5070.42)
(5088.31 0 0 0 5088.31 0 0 0 5088.31)
(5106.56 0 0 0 5106.56 0 0 0 5106.56)
(5125.15 0 0 0 5125.15 0 0 0 5125.15)
(5144.06 0 0 0 5144.06 0 0 0 5144.06)
(5163.28 0 0 0 5163.28 0 0 0 5163.28)
(5403.85 0 0 0 5403.85 0 0 0 5403.85)
(5833.6 0 0 0 5833.6 0 0 0 5833.6)
(6403.1 0 0 0 6403.1 0 0 0 6403.1)
(7090.85 0 0 0 7090.85 0 0 0 7090.85)
(7893.98 0 0 0 7893.98 0 0 0 7893.98)
(8803.46 0 0 0 8803.46 0 0 0 8803.46)
(9818.88 0 0 0 9818.88 0 0 0 9818.88)
(10941.1 0 0 0 10941.1 0 0 0 10941.1)
(12172.9 0 0 0 12172.9 0 0 0 12172.9)
(13517.3 0 0 0 13517.3 0 0 0 13517.3)
(14978 0 0 0 14978 0 0 0 14978)
(16557.9 0 0 0 16557.9 0 0 0 16557.9)
(18259.2 0 0 0 18259.2 0 0 0 18259.2)
(20090 0 0 0 20090 0 0 0 20090)
(22271.7 0 0 0 22271.7 0 0 0 22271.7)
(24704.2 0 0 0 24704.2 0 0 0 24704.2)
(27259.1 0 0 0 27259.1 0 0 0 27259.1)
(29885 0 0 0 29885 0 0 0 29885)
(32558.9 0 0 0 32558.9 0 0 0 32558.9)
(35266.6 0 0 0 35266.6 0 0 0 35266.6)
(37998.1 0 0 0 37998.1 0 0 0 37998.1)
(40745.6 0 0 0 40745.6 0 0 0 40745.6)
(43502.7 0 0 0 43502.7 0 0 0 43502.7)
(46263.6 0 0 0 46263.6 0 0 0 46263.6)
(49023.5 0 0 0 49023.5 0 0 0 49023.5)
(51778.1 0 0 0 51778.1 0 0 0 51778.1)
(54523.2 0 0 0 54523.2 0 0 0 54523.2)
(57255.5 0 0 0 57255.5 0 0 0 57255.5)
(59971.6 0 0 0 59971.6 0 0 0 59971.6)
(62668.7 0 0 0 62668.7 0 0 0 62668.7)
(65344.2 0 0 0 65344.2 0 0 0 65344.2)
(67986.3 0 0 0 67986.3 0 0 0 67986.3)
(70587.9 0 0 0 70587.9 0 0 0 70587.9)
(73149 0 0 0 73149 0 0 0 73149)
(75670.6 0 0 0 75670.6 0 0 0 75670.6)
(78152.7 0 0 0 78152.7 0 0 0 78152.7)
(81020.3 0 0 0 81020.3 0 0 0 81020.3)
(85358.5 0 0 0 85358.5 0 0 0 85358.5)
(89680.6 0 0 0 89680.6 0 0 0 89680.6)
(94002.4 0 0 0 94002.4 0 0 0 94002.4)
(98342.4 0 0 0 98342.4 0 0 0 98342.4)
(102707 0 0 0 102707 0 0 0 102707)
(107099 0 0 0 107099 0 0 0 107099)
(111520 0 0 0 111520 0 0 0 111520)
(115967 0 0 0 115967 0 0 0 115967)
(120441 0 0 0 120441 0 0 0 120441)
(124940 0 0 0 124940 0 0 0 124940)
(129460 0 0 0 129460 0 0 0 129460)
(134000 0 0 0 134000 0 0 0 134000)
(138558 0 0 0 138558 0 0 0 138558)
(143132 0 0 0 143132 0 0 0 143132)
(147720 0 0 0 147720 0 0 0 147720)
(152318 0 0 0 152318 0 0 0 152318)
(156926 0 0 0 156926 0 0 0 156926)
(161541 0 0 0 161541 0 0 0 161541)
(166161 0 0 0 166161 0 0 0 166161)
(170783 0 0 0 170783 0 0 0 170783)
(175407 0 0 0 175407 0 0 0 175407)
(180023 0 0 0 180023 0 0 0 180023)
(184657 0 0 0 184657 0 0 0 184657)
(189214 0 0 0 189214 0 0 0 189214)
(194001 0 0 0 194001 0 0 0 194001)
(197995 0 0 0 197995 0 0 0 197995)
(204567 0 0 0 204567 0 0 0 204567)
)
;

boundaryField
{
    inlet
    {
        type            zeroGradient;
    }
    outlet
    {
        type            zeroGradient;
    }
    fixedWalls
    {
        type            zeroGradient;
    }
}


// ************************************************************************* //
