/*--------------------------------*- C++ -*----------------------------------*\
| =========                 |                                                 |
| \\      /  F ield         | OpenFOAM: The Open Source CFD Toolbox           |
|  \\    /   O peration     | Version:  2406                                  |
|   \\  /    A nd           | Website:  www.openfoam.com                      |
|    \\/     M anipulation  |                                                 |
\*---------------------------------------------------------------------------*/
FoamFile
{
    version     2.0;
    format      ascii;
    arch        "LSB;label=32;scalar=64";
    class       volScalarField;
    location    "0.6/fluidRegion";
    object      T.interface;
}
// * * * * * * * * * * * * * * * * * * * * * * * * * * * * * * * * * * * * * //

dimensions      [0 0 0 1 0 0 0];

internalField   nonuniform List<scalar> 
70
(
615.446
615.445
615.443
615.441
615.44
615.438
615.436
615.434
615.431
615.429
615.426
615.422
615.418
615.414
615.41
615.404
615.399
615.393
615.386
615.379
615.371
615.362
615.352
615.342
615.33
615.318
615.305
615.291
615.277
615.261
615.245
615.228
615.21
615.192
615.173
615.152
615.131
615.11
615.087
615.064
615.04
615.015
614.99
614.963
614.936
614.907
614.877
614.845
614.813
614.779
614.743
614.707
614.669
614.629
614.588
614.546
614.503
614.458
614.411
614.363
614.314
614.264
614.212
614.158
614.103
614.047
613.989
613.929
613.868
613.806
)
;

boundaryField
{
    inlet
    {
        type            zeroGradient;
    }
    outlet
    {
        type            zeroGradient;
    }
    fixedWalls
    {
        type            zeroGradient;
    }
}


// ************************************************************************* //
