/*--------------------------------*- C++ -*----------------------------------*\
| =========                 |                                                 |
| \\      /  F ield         | OpenFOAM: The Open Source CFD Toolbox           |
|  \\    /   O peration     | Version:  2406                                  |
|   \\  /    A nd           | Website:  www.openfoam.com                      |
|    \\/     M anipulation  |                                                 |
\*---------------------------------------------------------------------------*/
FoamFile
{
    version     2.0;
    format      ascii;
    arch        "LSB;label=32;scalar=64";
    class       volScalarField;
    location    "0.6/fluidRegion";
    object      T.vapour;
}
// * * * * * * * * * * * * * * * * * * * * * * * * * * * * * * * * * * * * * //

dimensions      [0 0 0 1 0 0 0];

internalField   nonuniform List<scalar> 
70
(
615.446
615.445
615.443
615.441
615.44
615.438
615.436
615.434
615.433
615.431
615.429
615.427
615.425
615.422
615.419
615.416
615.413
615.409
615.405
615.401
615.396
615.391
615.386
615.38
615.374
615.368
615.362
615.356
615.349
615.342
615.335
615.327
615.319
615.311
615.303
615.294
615.285
615.276
615.266
615.256
615.247
615.236
615.226
615.215
615.204
615.193
615.181
615.17
615.157
615.145
615.132
615.119
615.105
615.091
615.076
615.061
615.046
615.03
615.014
614.997
614.98
614.963
614.945
614.926
614.908
614.888
614.868
614.848
614.827
614.806
)
;

boundaryField
{
    inlet
    {
        type            fixedValue;
        value           uniform 592.75;
    }
    outlet
    {
        type            zeroGradient;
    }
    fixedWalls
    {
        type            zeroGradient;
    }
}


// ************************************************************************* //
