/*--------------------------------*- C++ -*----------------------------------*\
| =========                 |                                                 |
| \\      /  F ield         | OpenFOAM: The Open Source CFD Toolbox           |
|  \\    /   O peration     | Version:  2406                                  |
|   \\  /    A nd           | Website:  www.openfoam.com                      |
|    \\/     M anipulation  |                                                 |
\*---------------------------------------------------------------------------*/
FoamFile
{
    version     2.0;
    format      ascii;
    arch        "LSB;label=32;scalar=64";
    class       volScalarField;
    location    "30/fluidRegion";
    object      alphaRhoMagU.vapour;
}
// * * * * * * * * * * * * * * * * * * * * * * * * * * * * * * * * * * * * * //

dimensions      [1 -2 -1 0 0 0 0];

internalField   nonuniform List<scalar> 
75
(
21.6438
21.079
20.5735
20.0648
19.5715
19.0648
18.5981
18.1761
17.7974
17.4769
17.2646
17.1794
17.2159
17.3628
17.6116
17.9554
18.3858
18.8946
19.4736
20.1155
20.813
21.5597
22.3499
23.1784
24.0401
24.9239
25.8213
26.7299
27.6491
28.5785
29.5179
30.4667
31.4247
32.3914
33.3666
34.3498
35.3408
36.3391
37.3446
38.3566
39.3759
40.3936
41.4
42.4046
43.4101
44.4165
45.4244
46.434
47.4454
48.4589
49.4745
50.4925
51.5127
52.5353
53.5603
54.5877
55.6175
56.6496
57.6839
58.7205
59.7593
60.8002
61.8432
62.8883
63.9354
64.9845
66.0355
67.0884
68.1432
69.1996
70.2582
71.3164
72.3839
73.424
74.5734
)
;

boundaryField
{
    inlet
    {
        type            calculated;
        value           uniform 21.8301;
    }
    outlet
    {
        type            calculated;
        value           uniform 74.5711;
    }
    fixedWalls
    {
        type            calculated;
        value           nonuniform List<scalar> 
300
(
21.6438
21.079
20.5735
20.0648
19.5715
19.0648
18.5981
18.1761
17.7974
17.4769
17.2646
17.1794
17.2159
17.3628
17.6116
17.9554
18.3858
18.8946
19.4736
20.1155
20.813
21.5597
22.3499
23.1784
24.0401
24.9239
25.8213
26.7299
27.6491
28.5785
29.5179
30.4667
31.4247
32.3914
33.3666
34.3498
35.3408
36.3391
37.3446
38.3566
39.3759
40.3936
41.4
42.4046
43.4101
44.4165
45.4244
46.434
47.4454
48.4589
49.4745
50.4925
51.5127
52.5353
53.5603
54.5877
55.6175
56.6496
57.6839
58.7205
59.7593
60.8002
61.8432
62.8883
63.9354
64.9845
66.0355
67.0884
68.1432
69.1996
70.2582
71.3164
72.3839
73.424
74.5734
21.6438
21.079
20.5735
20.0648
19.5715
19.0648
18.5981
18.1761
17.7974
17.4769
17.2646
17.1794
17.2159
17.3628
17.6116
17.9554
18.3858
18.8946
19.4736
20.1155
20.813
21.5597
22.3499
23.1784
24.0401
24.9239
25.8213
26.7299
27.6491
28.5785
29.5179
30.4667
31.4247
32.3914
33.3666
34.3498
35.3408
36.3391
37.3446
38.3566
39.3759
40.3936
41.4
42.4046
43.4101
44.4165
45.4244
46.434
47.4454
48.4589
49.4745
50.4925
51.5127
52.5353
53.5603
54.5877
55.6175
56.6496
57.6839
58.7205
59.7593
60.8002
61.8432
62.8883
63.9354
64.9845
66.0355
67.0884
68.1432
69.1996
70.2582
71.3164
72.3839
73.424
74.5734
21.6438
21.079
20.5735
20.0648
19.5715
19.0648
18.5981
18.1761
17.7974
17.4769
17.2646
17.1794
17.2159
17.3628
17.6116
17.9554
18.3858
18.8946
19.4736
20.1155
20.813
21.5597
22.3499
23.1784
24.0401
24.9239
25.8213
26.7299
27.6491
28.5785
29.5179
30.4667
31.4247
32.3914
33.3666
34.3498
35.3408
36.3391
37.3446
38.3566
39.3759
40.3936
41.4
42.4046
43.4101
44.4165
45.4244
46.434
47.4454
48.4589
49.4745
50.4925
51.5127
52.5353
53.5603
54.5877
55.6175
56.6496
57.6839
58.7205
59.7593
60.8002
61.8432
62.8883
63.9354
64.9845
66.0355
67.0884
68.1432
69.1996
70.2582
71.3164
72.3839
73.424
74.5734
21.6438
21.079
20.5735
20.0648
19.5715
19.0648
18.5981
18.1761
17.7974
17.4769
17.2646
17.1794
17.2159
17.3628
17.6116
17.9554
18.3858
18.8946
19.4736
20.1155
20.813
21.5597
22.3499
23.1784
24.0401
24.9239
25.8213
26.7299
27.6491
28.5785
29.5179
30.4667
31.4247
32.3914
33.3666
34.3498
35.3408
36.3391
37.3446
38.3566
39.3759
40.3936
41.4
42.4046
43.4101
44.4165
45.4244
46.434
47.4454
48.4589
49.4745
50.4925
51.5127
52.5353
53.5603
54.5877
55.6175
56.6496
57.6839
58.7205
59.7593
60.8002
61.8432
62.8883
63.9354
64.9845
66.0355
67.0884
68.1432
69.1996
70.2582
71.3164
72.3839
73.424
74.5734
)
;
    }
}


// ************************************************************************* //
