/*--------------------------------*- C++ -*----------------------------------*\
| =========                 |                                                 |
| \\      /  F ield         | OpenFOAM: The Open Source CFD Toolbox           |
|  \\    /   O peration     | Version:  2406                                  |
|   \\  /    A nd           | Website:  www.openfoam.com                      |
|    \\/     M anipulation  |                                                 |
\*---------------------------------------------------------------------------*/
FoamFile
{
    version     2.0;
    format      ascii;
    arch        "LSB;label=32;scalar=64";
    class       volScalarField;
    location    "30/fluidRegion";
    object      dgdt.vapour;
}
// * * * * * * * * * * * * * * * * * * * * * * * * * * * * * * * * * * * * * //

dimensions      [0 0 -1 0 0 0 0];

internalField   nonuniform List<scalar> 
75
(
-0.918103
-0.897756
-0.877794
-0.858414
-0.839506
-0.767406
-0.6966
-0.627296
-0.55949
-0.456286
-0.26128
-0.0704671
0.115557
0.293202
0.458058
0.609127
0.746178
0.869518
0.979803
1.0779
1.16479
1.24149
1.309
1.36828
1.42024
1.4493
1.46737
1.48477
1.50155
1.51778
1.53346
1.54855
1.56307
1.57702
1.5904
1.60322
1.61549
1.62721
1.63839
1.64905
1.6592
1.66884
1.65373
1.64301
1.63947
1.63905
1.64029
1.6425
1.64534
1.6486
1.65213
1.65585
1.65969
1.6636
1.66753
1.67146
1.67535
1.67919
1.68297
1.68668
1.69033
1.69391
1.69745
1.70094
1.7044
1.70781
1.71116
1.71446
1.71768
1.72082
1.72384
1.72678
1.72948
1.73252
1.73764
)
;

boundaryField
{
    inlet
    {
        type            calculated;
        value           uniform -0.918103;
    }
    outlet
    {
        type            calculated;
        value           uniform 1.73764;
    }
    fixedWalls
    {
        type            calculated;
        value           nonuniform List<scalar> 
300
(
-0.918103
-0.897756
-0.877794
-0.858414
-0.839506
-0.767406
-0.6966
-0.627296
-0.55949
-0.456286
-0.26128
-0.0704671
0.115557
0.293202
0.458058
0.609127
0.746178
0.869518
0.979803
1.0779
1.16479
1.24149
1.309
1.36828
1.42024
1.4493
1.46737
1.48477
1.50155
1.51778
1.53346
1.54855
1.56307
1.57702
1.5904
1.60322
1.61549
1.62721
1.63839
1.64905
1.6592
1.66884
1.65373
1.64301
1.63947
1.63905
1.64029
1.6425
1.64534
1.6486
1.65213
1.65585
1.65969
1.6636
1.66753
1.67146
1.67535
1.67919
1.68297
1.68668
1.69033
1.69391
1.69745
1.70094
1.7044
1.70781
1.71116
1.71446
1.71768
1.72082
1.72384
1.72678
1.72948
1.73252
1.73764
-0.918103
-0.897756
-0.877794
-0.858414
-0.839506
-0.767406
-0.6966
-0.627296
-0.55949
-0.456286
-0.26128
-0.0704671
0.115557
0.293202
0.458058
0.609127
0.746178
0.869518
0.979803
1.0779
1.16479
1.24149
1.309
1.36828
1.42024
1.4493
1.46737
1.48477
1.50155
1.51778
1.53346
1.54855
1.56307
1.57702
1.5904
1.60322
1.61549
1.62721
1.63839
1.64905
1.6592
1.66884
1.65373
1.64301
1.63947
1.63905
1.64029
1.6425
1.64534
1.6486
1.65213
1.65585
1.65969
1.6636
1.66753
1.67146
1.67535
1.67919
1.68297
1.68668
1.69033
1.69391
1.69745
1.70094
1.7044
1.70781
1.71116
1.71446
1.71768
1.72082
1.72384
1.72678
1.72948
1.73252
1.73764
-0.918103
-0.897756
-0.877794
-0.858414
-0.839506
-0.767406
-0.6966
-0.627296
-0.55949
-0.456286
-0.26128
-0.0704671
0.115557
0.293202
0.458058
0.609127
0.746178
0.869518
0.979803
1.0779
1.16479
1.24149
1.309
1.36828
1.42024
1.4493
1.46737
1.48477
1.50155
1.51778
1.53346
1.54855
1.56307
1.57702
1.5904
1.60322
1.61549
1.62721
1.63839
1.64905
1.6592
1.66884
1.65373
1.64301
1.63947
1.63905
1.64029
1.6425
1.64534
1.6486
1.65213
1.65585
1.65969
1.6636
1.66753
1.67146
1.67535
1.67919
1.68297
1.68668
1.69033
1.69391
1.69745
1.70094
1.7044
1.70781
1.71116
1.71446
1.71768
1.72082
1.72384
1.72678
1.72948
1.73252
1.73764
-0.918103
-0.897756
-0.877794
-0.858414
-0.839506
-0.767406
-0.6966
-0.627296
-0.55949
-0.456286
-0.26128
-0.0704671
0.115557
0.293202
0.458058
0.609127
0.746178
0.869518
0.979803
1.0779
1.16479
1.24149
1.309
1.36828
1.42024
1.4493
1.46737
1.48477
1.50155
1.51778
1.53346
1.54855
1.56307
1.57702
1.5904
1.60322
1.61549
1.62721
1.63839
1.64905
1.6592
1.66884
1.65373
1.64301
1.63947
1.63905
1.64029
1.6425
1.64534
1.6486
1.65213
1.65585
1.65969
1.6636
1.66753
1.67146
1.67535
1.67919
1.68297
1.68668
1.69033
1.69391
1.69745
1.70094
1.7044
1.70781
1.71116
1.71446
1.71768
1.72082
1.72384
1.72678
1.72948
1.73252
1.73764
)
;
    }
}


// ************************************************************************* //
