/*--------------------------------*- C++ -*----------------------------------*\
| =========                 |                                                 |
| \\      /  F ield         | OpenFOAM: The Open Source CFD Toolbox           |
|  \\    /   O peration     | Version:  2406                                  |
|   \\  /    A nd           | Website:  www.openfoam.com                      |
|    \\/     M anipulation  |                                                 |
\*---------------------------------------------------------------------------*/
FoamFile
{
    version     2.0;
    format      ascii;
    arch        "LSB;label=32;scalar=64";
    class       volTensorField;
    location    "30/fluidRegion";
    object      KdTotU;
}
// * * * * * * * * * * * * * * * * * * * * * * * * * * * * * * * * * * * * * //

dimensions      [1 -2 -2 0 0 0 0];

internalField   nonuniform List<tensor> 
75
(
(2702.03 0 0 0 2702.03 0 0 0 2702.03)
(2649.41 0 0 0 2649.41 0 0 0 2649.41)
(2599.25 0 0 0 2599.25 0 0 0 2599.25)
(2549.56 0 0 0 2549.56 0 0 0 2549.56)
(2500.95 0 0 0 2500.95 0 0 0 2500.95)
(2449.89 0 0 0 2449.89 0 0 0 2449.89)
(2402.69 0 0 0 2402.69 0 0 0 2402.69)
(2360.01 0 0 0 2360.01 0 0 0 2360.01)
(2321.77 0 0 0 2321.77 0 0 0 2321.77)
(2289.25 0 0 0 2289.25 0 0 0 2289.25)
(2266.98 0 0 0 2266.98 0 0 0 2266.98)
(2257.33 0 0 0 2257.33 0 0 0 2257.33)
(2259.92 0 0 0 2259.92 0 0 0 2259.92)
(2273.96 0 0 0 2273.96 0 0 0 2273.96)
(2298.63 0 0 0 2298.63 0 0 0 2298.63)
(2333.07 0 0 0 2333.07 0 0 0 2333.07)
(2376.3 0 0 0 2376.3 0 0 0 2376.3)
(2427.37 0 0 0 2427.37 0 0 0 2427.37)
(2485.34 0 0 0 2485.34 0 0 0 2485.34)
(2549.34 0 0 0 2549.34 0 0 0 2549.34)
(2618.56 0 0 0 2618.56 0 0 0 2618.56)
(2692.28 0 0 0 2692.28 0 0 0 2692.28)
(2769.82 0 0 0 2769.82 0 0 0 2769.82)
(2850.61 0 0 0 2850.61 0 0 0 2850.61)
(2934.12 0 0 0 2934.12 0 0 0 2934.12)
(3019.35 0 0 0 3019.35 0 0 0 3019.35)
(3105.34 0 0 0 3105.34 0 0 0 3105.34)
(3191.78 0 0 0 3191.78 0 0 0 3191.78)
(3278.63 0 0 0 3278.63 0 0 0 3278.63)
(3365.84 0 0 0 3365.84 0 0 0 3365.84)
(3453.37 0 0 0 3453.37 0 0 0 3453.37)
(3541.18 0 0 0 3541.18 0 0 0 3541.18)
(3629.24 0 0 0 3629.24 0 0 0 3629.24)
(3717.5 0 0 0 3717.5 0 0 0 3717.5)
(3805.93 0 0 0 3805.93 0 0 0 3805.93)
(3894.48 0 0 0 3894.48 0 0 0 3894.48)
(3983.12 0 0 0 3983.12 0 0 0 3983.12)
(4071.82 0 0 0 4071.82 0 0 0 4071.82)
(4160.53 0 0 0 4160.53 0 0 0 4160.53)
(4249.22 0 0 0 4249.22 0 0 0 4249.22)
(4337.87 0 0 0 4337.87 0 0 0 4337.87)
(4426.39 0 0 0 4426.39 0 0 0 4426.39)
(4552.19 0 0 0 4552.19 0 0 0 4552.19)
(4693.64 0 0 0 4693.64 0 0 0 4693.64)
(4833.93 0 0 0 4833.93 0 0 0 4833.93)
(4974.05 0 0 0 4974.05 0 0 0 4974.05)
(5114.56 0 0 0 5114.56 0 0 0 5114.56)
(5255.73 0 0 0 5255.73 0 0 0 5255.73)
(5397.71 0 0 0 5397.71 0 0 0 5397.71)
(5540.57 0 0 0 5540.57 0 0 0 5540.57)
(5684.34 0 0 0 5684.34 0 0 0 5684.34)
(5829.02 0 0 0 5829.02 0 0 0 5829.02)
(5974.62 0 0 0 5974.62 0 0 0 5974.62)
(6121.12 0 0 0 6121.12 0 0 0 6121.12)
(6268.51 0 0 0 6268.51 0 0 0 6268.51)
(6416.75 0 0 0 6416.75 0 0 0 6416.75)
(6565.82 0 0 0 6565.82 0 0 0 6565.82)
(6715.7 0 0 0 6715.7 0 0 0 6715.7)
(6866.36 0 0 0 6866.36 0 0 0 6866.36)
(7017.77 0 0 0 7017.77 0 0 0 7017.77)
(7169.91 0 0 0 7169.91 0 0 0 7169.91)
(7322.74 0 0 0 7322.74 0 0 0 7322.74)
(7476.24 0 0 0 7476.24 0 0 0 7476.24)
(7630.4 0 0 0 7630.4 0 0 0 7630.4)
(7785.19 0 0 0 7785.19 0 0 0 7785.19)
(7940.58 0 0 0 7940.58 0 0 0 7940.58)
(8096.56 0 0 0 8096.56 0 0 0 8096.56)
(8253.1 0 0 0 8253.1 0 0 0 8253.1)
(8410.2 0 0 0 8410.2 0 0 0 8410.2)
(8567.75 0 0 0 8567.75 0 0 0 8567.75)
(8726.07 0 0 0 8726.07 0 0 0 8726.07)
(8883.82 0 0 0 8883.82 0 0 0 8883.82)
(9045.96 0 0 0 9045.96 0 0 0 9045.96)
(9193.55 0 0 0 9193.55 0 0 0 9193.55)
(9397.92 0 0 0 9397.92 0 0 0 9397.92)
)
;

boundaryField
{
    inlet
    {
        type            zeroGradient;
    }
    outlet
    {
        type            zeroGradient;
    }
    fixedWalls
    {
        type            zeroGradient;
    }
}


// ************************************************************************* //
