/*--------------------------------*- C++ -*----------------------------------*\
| =========                 |                                                 |
| \\      /  F ield         | OpenFOAM: The Open Source CFD Toolbox           |
|  \\    /   O peration     | Version:  2406                                  |
|   \\  /    A nd           | Website:  www.openfoam.com                      |
|    \\/     M anipulation  |                                                 |
\*---------------------------------------------------------------------------*/
FoamFile
{
    version     2.0;
    format      ascii;
    arch        "LSB;label=32;scalar=64";
    class       volScalarField;
    location    "30/fluidRegion";
    object      alphaRhoMagU.vapour;
}
// * * * * * * * * * * * * * * * * * * * * * * * * * * * * * * * * * * * * * //

dimensions      [1 -2 -1 0 0 0 0];

internalField   nonuniform List<scalar> 
105
(
0
0
0
0
0
0
0
0
0
0
0
0
0
0.0861747
0.338975
0.750129
1.33659
2.12622
3.14953
4.42881
5.96938
7.76041
9.68094
11.6491
13.645
15.6661
17.7107
19.7777
21.866
23.9743
26.1016
28.2469
30.4092
32.5876
34.781
36.9889
39.2166
41.4651
43.7332
46.0196
48.323
50.6421
52.9752
55.3246
57.6632
59.9453
62.2077
64.4634
66.7168
68.9711
71.2283
73.4896
75.756
78.0281
80.3061
82.5903
84.8807
87.1774
89.4802
91.7891
94.104
96.4245
98.7507
101.082
103.419
105.761
108.107
110.459
112.814
115.174
117.538
119.906
122.277
124.652
127.03
129.411
131.795
134.182
136.572
138.964
141.358
143.755
146.154
148.554
150.957
153.361
155.767
158.175
160.584
162.994
165.405
167.818
170.231
172.646
175.061
177.477
179.895
182.311
184.732
187.146
189.577
191.972
194.446
196.755
199.437
)
;

boundaryField
{
    inlet
    {
        type            calculated;
        value           uniform 0;
    }
    outlet
    {
        type            calculated;
        value           uniform 199.384;
    }
    fixedWalls
    {
        type            calculated;
        value           nonuniform List<scalar> 
420
(
0
0
0
0
0
0
0
0
0
0
0
0
0
0.0861747
0.338975
0.750129
1.33659
2.12622
3.14953
4.42881
5.96938
7.76041
9.68094
11.6491
13.645
15.6661
17.7107
19.7777
21.866
23.9743
26.1016
28.2469
30.4092
32.5876
34.781
36.9889
39.2166
41.4651
43.7332
46.0196
48.323
50.6421
52.9752
55.3246
57.6632
59.9453
62.2077
64.4634
66.7168
68.9711
71.2283
73.4896
75.756
78.0281
80.3061
82.5903
84.8807
87.1774
89.4802
91.7891
94.104
96.4245
98.7507
101.082
103.419
105.761
108.107
110.459
112.814
115.174
117.538
119.906
122.277
124.652
127.03
129.411
131.795
134.182
136.572
138.964
141.358
143.755
146.154
148.554
150.957
153.361
155.767
158.175
160.584
162.994
165.405
167.818
170.231
172.646
175.061
177.477
179.895
182.311
184.732
187.146
189.577
191.972
194.446
196.755
199.437
0
0
0
0
0
0
0
0
0
0
0
0
0
0.0861747
0.338975
0.750129
1.33659
2.12622
3.14953
4.42881
5.96938
7.76041
9.68094
11.6491
13.645
15.6661
17.7107
19.7777
21.866
23.9743
26.1016
28.2469
30.4092
32.5876
34.781
36.9889
39.2166
41.4651
43.7332
46.0196
48.323
50.6421
52.9752
55.3246
57.6632
59.9453
62.2077
64.4634
66.7168
68.9711
71.2283
73.4896
75.756
78.0281
80.3061
82.5903
84.8807
87.1774
89.4802
91.7891
94.104
96.4245
98.7507
101.082
103.419
105.761
108.107
110.459
112.814
115.174
117.538
119.906
122.277
124.652
127.03
129.411
131.795
134.182
136.572
138.964
141.358
143.755
146.154
148.554
150.957
153.361
155.767
158.175
160.584
162.994
165.405
167.818
170.231
172.646
175.061
177.477
179.895
182.311
184.732
187.146
189.577
191.972
194.446
196.755
199.437
0
0
0
0
0
0
0
0
0
0
0
0
0
0.0861747
0.338975
0.750129
1.33659
2.12622
3.14953
4.42881
5.96938
7.76041
9.68094
11.6491
13.645
15.6661
17.7107
19.7777
21.866
23.9743
26.1016
28.2469
30.4092
32.5876
34.781
36.9889
39.2166
41.4651
43.7332
46.0196
48.323
50.6421
52.9752
55.3246
57.6632
59.9453
62.2077
64.4634
66.7168
68.9711
71.2283
73.4896
75.756
78.0281
80.3061
82.5903
84.8807
87.1774
89.4802
91.7891
94.104
96.4245
98.7507
101.082
103.419
105.761
108.107
110.459
112.814
115.174
117.538
119.906
122.277
124.652
127.03
129.411
131.795
134.182
136.572
138.964
141.358
143.755
146.154
148.554
150.957
153.361
155.767
158.175
160.584
162.994
165.405
167.818
170.231
172.646
175.061
177.477
179.895
182.311
184.732
187.146
189.577
191.972
194.446
196.755
199.437
0
0
0
0
0
0
0
0
0
0
0
0
0
0.0861747
0.338975
0.750129
1.33659
2.12622
3.14953
4.42881
5.96938
7.76041
9.68094
11.6491
13.645
15.6661
17.7107
19.7777
21.866
23.9743
26.1016
28.2469
30.4092
32.5876
34.781
36.9889
39.2166
41.4651
43.7332
46.0196
48.323
50.6421
52.9752
55.3246
57.6632
59.9453
62.2077
64.4634
66.7168
68.9711
71.2283
73.4896
75.756
78.0281
80.3061
82.5903
84.8807
87.1774
89.4802
91.7891
94.104
96.4245
98.7507
101.082
103.419
105.761
108.107
110.459
112.814
115.174
117.538
119.906
122.277
124.652
127.03
129.411
131.795
134.182
136.572
138.964
141.358
143.755
146.154
148.554
150.957
153.361
155.767
158.175
160.584
162.994
165.405
167.818
170.231
172.646
175.061
177.477
179.895
182.311
184.732
187.146
189.577
191.972
194.446
196.755
199.437
)
;
    }
}


// ************************************************************************* //
