/*--------------------------------*- C++ -*----------------------------------*\
| =========                 |                                                 |
| \\      /  F ield         | OpenFOAM: The Open Source CFD Toolbox           |
|  \\    /   O peration     | Version:  2406                                  |
|   \\  /    A nd           | Website:  www.openfoam.com                      |
|    \\/     M anipulation  |                                                 |
\*---------------------------------------------------------------------------*/
FoamFile
{
    version     2.0;
    format      ascii;
    arch        "LSB;label=32;scalar=64";
    class       volScalarField;
    location    "30/fluidRegion";
    object      dgdt.vapour;
}
// * * * * * * * * * * * * * * * * * * * * * * * * * * * * * * * * * * * * * //

dimensions      [0 0 -1 0 0 0 0];

internalField   nonuniform List<scalar> 
105
(
-0
-0
-0
-0
-0
-0
-0
-0
-0
-0
-0
-0
-0
0.0695953
0.191516
0.310839
0.44499
0.602553
0.784206
0.982357
1.18183
1.3734
1.44544
1.47191
1.4918
1.50925
1.5254
1.54064
1.55512
1.5689
1.58201
1.59447
1.60631
1.61754
1.62818
1.63853
1.65459
1.66971
1.6839
1.69715
1.70948
1.72089
1.73142
1.74109
1.7499
1.70385
1.68114
1.6735
1.67181
1.67309
1.67608
1.68009
1.68474
1.6898
1.69511
1.70056
1.70607
1.7116
1.71711
1.72256
1.72795
1.73325
1.73846
1.74357
1.74857
1.75347
1.75826
1.76295
1.76753
1.77201
1.77639
1.78067
1.78486
1.78896
1.79297
1.79691
1.80076
1.80454
1.80825
1.8119
1.81549
1.81901
1.82249
1.82592
1.8293
1.83265
1.83595
1.83922
1.84246
1.84567
1.84886
1.85202
1.85517
1.8583
1.86141
1.86451
1.8676
1.87069
1.87376
1.87687
1.87988
1.8831
1.88589
1.88957
1.93077
)
;

boundaryField
{
    inlet
    {
        type            calculated;
        value           uniform -0;
    }
    outlet
    {
        type            calculated;
        value           uniform 1.93077;
    }
    fixedWalls
    {
        type            calculated;
        value           nonuniform List<scalar> 
420
(
-0
-0
-0
-0
-0
-0
-0
-0
-0
-0
-0
-0
-0
0.0695953
0.191516
0.310839
0.44499
0.602553
0.784206
0.982357
1.18183
1.3734
1.44544
1.47191
1.4918
1.50925
1.5254
1.54064
1.55512
1.5689
1.58201
1.59447
1.60631
1.61754
1.62818
1.63853
1.65459
1.66971
1.6839
1.69715
1.70948
1.72089
1.73142
1.74109
1.7499
1.70385
1.68114
1.6735
1.67181
1.67309
1.67608
1.68009
1.68474
1.6898
1.69511
1.70056
1.70607
1.7116
1.71711
1.72256
1.72795
1.73325
1.73846
1.74357
1.74857
1.75347
1.75826
1.76295
1.76753
1.77201
1.77639
1.78067
1.78486
1.78896
1.79297
1.79691
1.80076
1.80454
1.80825
1.8119
1.81549
1.81901
1.82249
1.82592
1.8293
1.83265
1.83595
1.83922
1.84246
1.84567
1.84886
1.85202
1.85517
1.8583
1.86141
1.86451
1.8676
1.87069
1.87376
1.87687
1.87988
1.8831
1.88589
1.88957
1.93077
-0
-0
-0
-0
-0
-0
-0
-0
-0
-0
-0
-0
-0
0.0695953
0.191516
0.310839
0.44499
0.602553
0.784206
0.982357
1.18183
1.3734
1.44544
1.47191
1.4918
1.50925
1.5254
1.54064
1.55512
1.5689
1.58201
1.59447
1.60631
1.61754
1.62818
1.63853
1.65459
1.66971
1.6839
1.69715
1.70948
1.72089
1.73142
1.74109
1.7499
1.70385
1.68114
1.6735
1.67181
1.67309
1.67608
1.68009
1.68474
1.6898
1.69511
1.70056
1.70607
1.7116
1.71711
1.72256
1.72795
1.73325
1.73846
1.74357
1.74857
1.75347
1.75826
1.76295
1.76753
1.77201
1.77639
1.78067
1.78486
1.78896
1.79297
1.79691
1.80076
1.80454
1.80825
1.8119
1.81549
1.81901
1.82249
1.82592
1.8293
1.83265
1.83595
1.83922
1.84246
1.84567
1.84886
1.85202
1.85517
1.8583
1.86141
1.86451
1.8676
1.87069
1.87376
1.87687
1.87988
1.8831
1.88589
1.88957
1.93077
-0
-0
-0
-0
-0
-0
-0
-0
-0
-0
-0
-0
-0
0.0695953
0.191516
0.310839
0.44499
0.602553
0.784206
0.982357
1.18183
1.3734
1.44544
1.47191
1.4918
1.50925
1.5254
1.54064
1.55512
1.5689
1.58201
1.59447
1.60631
1.61754
1.62818
1.63853
1.65459
1.66971
1.6839
1.69715
1.70948
1.72089
1.73142
1.74109
1.7499
1.70385
1.68114
1.6735
1.67181
1.67309
1.67608
1.68009
1.68474
1.6898
1.69511
1.70056
1.70607
1.7116
1.71711
1.72256
1.72795
1.73325
1.73846
1.74357
1.74857
1.75347
1.75826
1.76295
1.76753
1.77201
1.77639
1.78067
1.78486
1.78896
1.79297
1.79691
1.80076
1.80454
1.80825
1.8119
1.81549
1.81901
1.82249
1.82592
1.8293
1.83265
1.83595
1.83922
1.84246
1.84567
1.84886
1.85202
1.85517
1.8583
1.86141
1.86451
1.8676
1.87069
1.87376
1.87687
1.87988
1.8831
1.88589
1.88957
1.93077
-0
-0
-0
-0
-0
-0
-0
-0
-0
-0
-0
-0
-0
0.0695953
0.191516
0.310839
0.44499
0.602553
0.784206
0.982357
1.18183
1.3734
1.44544
1.47191
1.4918
1.50925
1.5254
1.54064
1.55512
1.5689
1.58201
1.59447
1.60631
1.61754
1.62818
1.63853
1.65459
1.66971
1.6839
1.69715
1.70948
1.72089
1.73142
1.74109
1.7499
1.70385
1.68114
1.6735
1.67181
1.67309
1.67608
1.68009
1.68474
1.6898
1.69511
1.70056
1.70607
1.7116
1.71711
1.72256
1.72795
1.73325
1.73846
1.74357
1.74857
1.75347
1.75826
1.76295
1.76753
1.77201
1.77639
1.78067
1.78486
1.78896
1.79297
1.79691
1.80076
1.80454
1.80825
1.8119
1.81549
1.81901
1.82249
1.82592
1.8293
1.83265
1.83595
1.83922
1.84246
1.84567
1.84886
1.85202
1.85517
1.8583
1.86141
1.86451
1.8676
1.87069
1.87376
1.87687
1.87988
1.8831
1.88589
1.88957
1.93077
)
;
    }
}


// ************************************************************************* //
