/*--------------------------------*- C++ -*----------------------------------*\
| =========                 |                                                 |
| \\      /  F ield         | OpenFOAM: The Open Source CFD Toolbox           |
|  \\    /   O peration     | Version:  2406                                  |
|   \\  /    A nd           | Website:  www.openfoam.com                      |
|    \\/     M anipulation  |                                                 |
\*---------------------------------------------------------------------------*/
FoamFile
{
    version     2.0;
    format      ascii;
    arch        "LSB;label=32;scalar=64";
    class       volTensorField;
    location    "30/fluidRegion";
    object      Kd.liquid.structure;
}
// * * * * * * * * * * * * * * * * * * * * * * * * * * * * * * * * * * * * * //

dimensions      [1 -3 -1 0 0 0 0];

internalField   nonuniform List<tensor> 
105
(
(418.523 0 0 0 418.523 0 0 0 418.523)
(418.523 0 0 0 418.523 0 0 0 418.523)
(418.523 0 0 0 418.523 0 0 0 418.523)
(418.523 0 0 0 418.523 0 0 0 418.523)
(418.523 0 0 0 418.523 0 0 0 418.523)
(417.537 0 0 0 417.537 0 0 0 417.537)
(416.742 0 0 0 416.742 0 0 0 416.742)
(415.963 0 0 0 415.963 0 0 0 415.963)
(415.199 0 0 0 415.199 0 0 0 415.199)
(414.45 0 0 0 414.45 0 0 0 414.45)
(413.715 0 0 0 413.715 0 0 0 413.715)
(412.994 0 0 0 412.994 0 0 0 412.994)
(412.285 0 0 0 412.285 0 0 0 412.285)
(428.049 0 0 0 428.049 0 0 0 428.049)
(467.346 0 0 0 467.346 0 0 0 467.346)
(524.505 0 0 0 524.505 0 0 0 524.505)
(598.616 0 0 0 598.616 0 0 0 598.616)
(689.9 0 0 0 689.9 0 0 0 689.9)
(798.355 0 0 0 798.355 0 0 0 798.355)
(922.736 0 0 0 922.736 0 0 0 922.736)
(1060.25 0 0 0 1060.25 0 0 0 1060.25)
(1207.42 0 0 0 1207.42 0 0 0 1207.42)
(1353.69 0 0 0 1353.69 0 0 0 1353.69)
(1493.1 0 0 0 1493.1 0 0 0 1493.1)
(1625.54 0 0 0 1625.54 0 0 0 1625.54)
(1752.14 0 0 0 1752.14 0 0 0 1752.14)
(1873.81 0 0 0 1873.81 0 0 0 1873.81)
(1991.27 0 0 0 1991.27 0 0 0 1991.27)
(2105.07 0 0 0 2105.07 0 0 0 2105.07)
(2215.66 0 0 0 2215.66 0 0 0 2215.66)
(2323.39 0 0 0 2323.39 0 0 0 2323.39)
(2428.58 0 0 0 2428.58 0 0 0 2428.58)
(2531.47 0 0 0 2531.47 0 0 0 2531.47)
(2632.28 0 0 0 2632.28 0 0 0 2632.28)
(2731.19 0 0 0 2731.19 0 0 0 2731.19)
(2828.37 0 0 0 2828.37 0 0 0 2828.37)
(2924.19 0 0 0 2924.19 0 0 0 2924.19)
(3018.88 0 0 0 3018.88 0 0 0 3018.88)
(3112.52 0 0 0 3112.52 0 0 0 3112.52)
(3205.16 0 0 0 3205.16 0 0 0 3205.16)
(3296.87 0 0 0 3296.87 0 0 0 3296.87)
(3387.69 0 0 0 3387.69 0 0 0 3387.69)
(3477.67 0 0 0 3477.67 0 0 0 3477.67)
(3566.7 0 0 0 3566.7 0 0 0 3566.7)
(3655.99 0 0 0 3655.99 0 0 0 3655.99)
(3798.28 0 0 0 3798.28 0 0 0 3798.28)
(3960.19 0 0 0 3960.19 0 0 0 3960.19)
(4122.83 0 0 0 4122.83 0 0 0 4122.83)
(4286.84 0 0 0 4286.84 0 0 0 4286.84)
(4452.64 0 0 0 4452.64 0 0 0 4452.64)
(4620.43 0 0 0 4620.43 0 0 0 4620.43)
(4790.33 0 0 0 4790.33 0 0 0 4790.33)
(4962.44 0 0 0 4962.44 0 0 0 4962.44)
(5136.83 0 0 0 5136.83 0 0 0 5136.83)
(5313.53 0 0 0 5313.53 0 0 0 5313.53)
(5492.59 0 0 0 5492.59 0 0 0 5492.59)
(5674.04 0 0 0 5674.04 0 0 0 5674.04)
(5857.89 0 0 0 5857.89 0 0 0 5857.89)
(6044.18 0 0 0 6044.18 0 0 0 6044.18)
(6232.91 0 0 0 6232.91 0 0 0 6232.91)
(6424.1 0 0 0 6424.1 0 0 0 6424.1)
(6617.77 0 0 0 6617.77 0 0 0 6617.77)
(6813.92 0 0 0 6813.92 0 0 0 6813.92)
(7012.58 0 0 0 7012.58 0 0 0 7012.58)
(7213.75 0 0 0 7213.75 0 0 0 7213.75)
(7417.46 0 0 0 7417.46 0 0 0 7417.46)
(7623.7 0 0 0 7623.7 0 0 0 7623.7)
(7832.51 0 0 0 7832.51 0 0 0 7832.51)
(8043.9 0 0 0 8043.9 0 0 0 8043.9)
(8257.87 0 0 0 8257.87 0 0 0 8257.87)
(8474.45 0 0 0 8474.45 0 0 0 8474.45)
(8693.67 0 0 0 8693.67 0 0 0 8693.67)
(8915.52 0 0 0 8915.52 0 0 0 8915.52)
(9140.05 0 0 0 9140.05 0 0 0 9140.05)
(9367.27 0 0 0 9367.27 0 0 0 9367.27)
(9597.19 0 0 0 9597.19 0 0 0 9597.19)
(9829.86 0 0 0 9829.86 0 0 0 9829.86)
(10065.3 0 0 0 10065.3 0 0 0 10065.3)
(10303.5 0 0 0 10303.5 0 0 0 10303.5)
(10544.5 0 0 0 10544.5 0 0 0 10544.5)
(10788.4 0 0 0 10788.4 0 0 0 10788.4)
(11035.2 0 0 0 11035.2 0 0 0 11035.2)
(11284.8 0 0 0 11284.8 0 0 0 11284.8)
(11537.4 0 0 0 11537.4 0 0 0 11537.4)
(11793 0 0 0 11793 0 0 0 11793)
(12051.6 0 0 0 12051.6 0 0 0 12051.6)
(12313.3 0 0 0 12313.3 0 0 0 12313.3)
(12578 0 0 0 12578 0 0 0 12578)
(12845.9 0 0 0 12845.9 0 0 0 12845.9)
(13116.9 0 0 0 13116.9 0 0 0 13116.9)
(13391.2 0 0 0 13391.2 0 0 0 13391.2)
(13668.7 0 0 0 13668.7 0 0 0 13668.7)
(13949.5 0 0 0 13949.5 0 0 0 13949.5)
(14233.6 0 0 0 14233.6 0 0 0 14233.6)
(14521.3 0 0 0 14521.3 0 0 0 14521.3)
(14812.2 0 0 0 14812.2 0 0 0 14812.2)
(15107 0 0 0 15107 0 0 0 15107)
(15404.7 0 0 0 15404.7 0 0 0 15404.7)
(15707.5 0 0 0 15707.5 0 0 0 15707.5)
(16010.9 0 0 0 16010.9 0 0 0 16010.9)
(16324.9 0 0 0 16324.9 0 0 0 16324.9)
(16628 0 0 0 16628 0 0 0 16628)
(16966.6 0 0 0 16966.6 0 0 0 16966.6)
(17241.8 0 0 0 17241.8 0 0 0 17241.8)
(17666.9 0 0 0 17666.9 0 0 0 17666.9)
)
;

boundaryField
{
    inlet
    {
        type            zeroGradient;
    }
    outlet
    {
        type            zeroGradient;
    }
    fixedWalls
    {
        type            zeroGradient;
    }
}


// ************************************************************************* //
