/*--------------------------------*- C++ -*----------------------------------*\
| =========                 |                                                 |
| \\      /  F ield         | OpenFOAM: The Open Source CFD Toolbox           |
|  \\    /   O peration     | Version:  2406                                  |
|   \\  /    A nd           | Website:  www.openfoam.com                      |
|    \\/     M anipulation  |                                                 |
\*---------------------------------------------------------------------------*/
FoamFile
{
    version     2.0;
    format      ascii;
    arch        "LSB;label=32;scalar=64";
    class       volTensorField;
    location    "30/fluidRegion";
    object      KdTotU;
}
// * * * * * * * * * * * * * * * * * * * * * * * * * * * * * * * * * * * * * //

dimensions      [1 -2 -2 0 0 0 0];

internalField   nonuniform List<tensor> 
105
(
(539.522 0 0 0 539.522 0 0 0 539.522)
(539.522 0 0 0 539.522 0 0 0 539.522)
(539.522 0 0 0 539.522 0 0 0 539.522)
(539.522 0 0 0 539.522 0 0 0 539.522)
(539.522 0 0 0 539.522 0 0 0 539.522)
(538.58 0 0 0 538.58 0 0 0 538.58)
(538.241 0 0 0 538.241 0 0 0 538.241)
(537.983 0 0 0 537.983 0 0 0 537.983)
(537.805 0 0 0 537.805 0 0 0 537.805)
(537.704 0 0 0 537.704 0 0 0 537.704)
(537.679 0 0 0 537.679 0 0 0 537.679)
(537.729 0 0 0 537.729 0 0 0 537.729)
(537.851 0 0 0 537.851 0 0 0 537.851)
(560.646 0 0 0 560.646 0 0 0 560.646)
(617.472 0 0 0 617.472 0 0 0 617.472)
(702.513 0 0 0 702.513 0 0 0 702.513)
(816.282 0 0 0 816.282 0 0 0 816.282)
(961.736 0 0 0 961.736 0 0 0 961.736)
(1142.19 0 0 0 1142.19 0 0 0 1142.19)
(1359.44 0 0 0 1359.44 0 0 0 1359.44)
(1612.62 0 0 0 1612.62 0 0 0 1612.62)
(1898.62 0 0 0 1898.62 0 0 0 1898.62)
(2199.63 0 0 0 2199.63 0 0 0 2199.63)
(2501.85 0 0 0 2501.85 0 0 0 2501.85)
(2802.22 0 0 0 2802.22 0 0 0 2802.22)
(3100.74 0 0 0 3100.74 0 0 0 3100.74)
(3397.58 0 0 0 3397.58 0 0 0 3397.58)
(3692.87 0 0 0 3692.87 0 0 0 3692.87)
(3986.68 0 0 0 3986.68 0 0 0 3986.68)
(4279.06 0 0 0 4279.06 0 0 0 4279.06)
(4570.02 0 0 0 4570.02 0 0 0 4570.02)
(4859.55 0 0 0 4859.55 0 0 0 4859.55)
(5147.64 0 0 0 5147.64 0 0 0 5147.64)
(5434.26 0 0 0 5434.26 0 0 0 5434.26)
(5719.37 0 0 0 5719.37 0 0 0 5719.37)
(6002.96 0 0 0 6002.96 0 0 0 6002.96)
(6285.59 0 0 0 6285.59 0 0 0 6285.59)
(6567.61 0 0 0 6567.61 0 0 0 6567.61)
(6848.86 0 0 0 6848.86 0 0 0 6848.86)
(7129.21 0 0 0 7129.21 0 0 0 7129.21)
(7408.49 0 0 0 7408.49 0 0 0 7408.49)
(7686.58 0 0 0 7686.58 0 0 0 7686.58)
(7963.34 0 0 0 7963.34 0 0 0 7963.34)
(8238.65 0 0 0 8238.65 0 0 0 8238.65)
(8512.27 0 0 0 8512.27 0 0 0 8512.27)
(8900.57 0 0 0 8900.57 0 0 0 8900.57)
(9326.16 0 0 0 9326.16 0 0 0 9326.16)
(9749.66 0 0 0 9749.66 0 0 0 9749.66)
(10174.7 0 0 0 10174.7 0 0 0 10174.7)
(10602.7 0 0 0 10602.7 0 0 0 10602.7)
(11034.4 0 0 0 11034.4 0 0 0 11034.4)
(11470 0 0 0 11470 0 0 0 11470)
(11909.5 0 0 0 11909.5 0 0 0 11909.5)
(12352.8 0 0 0 12352.8 0 0 0 12352.8)
(12799.9 0 0 0 12799.9 0 0 0 12799.9)
(13250.7 0 0 0 13250.7 0 0 0 13250.7)
(13705 0 0 0 13705 0 0 0 13705)
(14162.8 0 0 0 14162.8 0 0 0 14162.8)
(14623.7 0 0 0 14623.7 0 0 0 14623.7)
(15087.7 0 0 0 15087.7 0 0 0 15087.7)
(15554.7 0 0 0 15554.7 0 0 0 15554.7)
(16024.4 0 0 0 16024.4 0 0 0 16024.4)
(16496.7 0 0 0 16496.7 0 0 0 16496.7)
(16971.4 0 0 0 16971.4 0 0 0 16971.4)
(17448.5 0 0 0 17448.5 0 0 0 17448.5)
(17927.7 0 0 0 17927.7 0 0 0 17927.7)
(18408.9 0 0 0 18408.9 0 0 0 18408.9)
(18891.9 0 0 0 18891.9 0 0 0 18891.9)
(19376.6 0 0 0 19376.6 0 0 0 19376.6)
(19862.9 0 0 0 19862.9 0 0 0 19862.9)
(20350.7 0 0 0 20350.7 0 0 0 20350.7)
(20839.7 0 0 0 20839.7 0 0 0 20839.7)
(21330 0 0 0 21330 0 0 0 21330)
(21821.3 0 0 0 21821.3 0 0 0 21821.3)
(22313.5 0 0 0 22313.5 0 0 0 22313.5)
(22806.5 0 0 0 22806.5 0 0 0 22806.5)
(23300.3 0 0 0 23300.3 0 0 0 23300.3)
(23794.7 0 0 0 23794.7 0 0 0 23794.7)
(24289.6 0 0 0 24289.6 0 0 0 24289.6)
(24784.9 0 0 0 24784.9 0 0 0 24784.9)
(25280.5 0 0 0 25280.5 0 0 0 25280.5)
(25776.4 0 0 0 25776.4 0 0 0 25776.4)
(26272.4 0 0 0 26272.4 0 0 0 26272.4)
(26768.4 0 0 0 26768.4 0 0 0 26768.4)
(27264.4 0 0 0 27264.4 0 0 0 27264.4)
(27760.4 0 0 0 27760.4 0 0 0 27760.4)
(28256.1 0 0 0 28256.1 0 0 0 28256.1)
(28751.6 0 0 0 28751.6 0 0 0 28751.6)
(29246.8 0 0 0 29246.8 0 0 0 29246.8)
(29741.6 0 0 0 29741.6 0 0 0 29741.6)
(30236 0 0 0 30236 0 0 0 30236)
(30729.9 0 0 0 30729.9 0 0 0 30729.9)
(31223.3 0 0 0 31223.3 0 0 0 31223.3)
(31716 0 0 0 31716 0 0 0 31716)
(32208.2 0 0 0 32208.2 0 0 0 32208.2)
(32699.4 0 0 0 32699.4 0 0 0 32699.4)
(33190.5 0 0 0 33190.5 0 0 0 33190.5)
(33679.2 0 0 0 33679.2 0 0 0 33679.2)
(34170.6 0 0 0 34170.6 0 0 0 34170.6)
(34653.3 0 0 0 34653.3 0 0 0 34653.3)
(35151.6 0 0 0 35151.6 0 0 0 35151.6)
(35613.3 0 0 0 35613.3 0 0 0 35613.3)
(36149.9 0 0 0 36149.9 0 0 0 36149.9)
(36524.3 0 0 0 36524.3 0 0 0 36524.3)
(37243.4 0 0 0 37243.4 0 0 0 37243.4)
)
;

boundaryField
{
    inlet
    {
        type            zeroGradient;
    }
    outlet
    {
        type            zeroGradient;
    }
    fixedWalls
    {
        type            zeroGradient;
    }
}


// ************************************************************************* //
