/*--------------------------------*- C++ -*----------------------------------*\
| =========                 |                                                 |
| \\      /  F ield         | OpenFOAM: The Open Source CFD Toolbox           |
|  \\    /   O peration     | Version:  2406                                  |
|   \\  /    A nd           | Website:  www.openfoam.com                      |
|    \\/     M anipulation  |                                                 |
\*---------------------------------------------------------------------------*/
FoamFile
{
    version     2.0;
    format      ascii;
    arch        "LSB;label=32;scalar=64";
    class       volScalarField;
    location    "30/fluidRegion";
    object      p;
}
// * * * * * * * * * * * * * * * * * * * * * * * * * * * * * * * * * * * * * //

dimensions      [1 -1 -2 0 0 0 0];

internalField   nonuniform List<scalar> 
105
(
7.35172e+06
7.3517e+06
7.35167e+06
7.35165e+06
7.35163e+06
7.35159e+06
7.35154e+06
7.35149e+06
7.35144e+06
7.35138e+06
7.35133e+06
7.35128e+06
7.35122e+06
7.35117e+06
7.35111e+06
7.35103e+06
7.35094e+06
7.35083e+06
7.35069e+06
7.35054e+06
7.35035e+06
7.35013e+06
7.34987e+06
7.34959e+06
7.34928e+06
7.34894e+06
7.34857e+06
7.34817e+06
7.34775e+06
7.3473e+06
7.34682e+06
7.34632e+06
7.34579e+06
7.34523e+06
7.34464e+06
7.34402e+06
7.34338e+06
7.34271e+06
7.34201e+06
7.34128e+06
7.34053e+06
7.33975e+06
7.33894e+06
7.3381e+06
7.33724e+06
7.33634e+06
7.33541e+06
7.33443e+06
7.33342e+06
7.33237e+06
7.33127e+06
7.33013e+06
7.32894e+06
7.32772e+06
7.32645e+06
7.32513e+06
7.32377e+06
7.32236e+06
7.32091e+06
7.31942e+06
7.31787e+06
7.31628e+06
7.31465e+06
7.31296e+06
7.31123e+06
7.30946e+06
7.30763e+06
7.30576e+06
7.30383e+06
7.30186e+06
7.29984e+06
7.29778e+06
7.29566e+06
7.2935e+06
7.29128e+06
7.28902e+06
7.28671e+06
7.28434e+06
7.28193e+06
7.27947e+06
7.27696e+06
7.2744e+06
7.27179e+06
7.26913e+06
7.26643e+06
7.26367e+06
7.26086e+06
7.258e+06
7.2551e+06
7.25214e+06
7.24913e+06
7.24608e+06
7.24298e+06
7.23982e+06
7.23662e+06
7.23337e+06
7.23006e+06
7.22671e+06
7.22331e+06
7.21986e+06
7.21637e+06
7.21282e+06
7.20922e+06
7.20558e+06
7.20188e+06
)
;

boundaryField
{
    inlet
    {
        type            calculated;
        value           uniform 7.35173e+06;
    }
    outlet
    {
        type            calculated;
        value           uniform 7.2e+06;
    }
    fixedWalls
    {
        type            calculated;
        value           nonuniform List<scalar> 
420
(
7.35172e+06
7.3517e+06
7.35167e+06
7.35165e+06
7.35163e+06
7.35159e+06
7.35154e+06
7.35149e+06
7.35144e+06
7.35138e+06
7.35133e+06
7.35128e+06
7.35122e+06
7.35117e+06
7.35111e+06
7.35103e+06
7.35094e+06
7.35083e+06
7.35069e+06
7.35054e+06
7.35035e+06
7.35013e+06
7.34987e+06
7.34959e+06
7.34928e+06
7.34894e+06
7.34857e+06
7.34817e+06
7.34775e+06
7.3473e+06
7.34682e+06
7.34632e+06
7.34579e+06
7.34523e+06
7.34464e+06
7.34402e+06
7.34338e+06
7.34271e+06
7.34201e+06
7.34128e+06
7.34053e+06
7.33975e+06
7.33894e+06
7.3381e+06
7.33724e+06
7.33634e+06
7.33541e+06
7.33443e+06
7.33342e+06
7.33237e+06
7.33127e+06
7.33013e+06
7.32894e+06
7.32772e+06
7.32645e+06
7.32513e+06
7.32377e+06
7.32236e+06
7.32091e+06
7.31942e+06
7.31787e+06
7.31628e+06
7.31465e+06
7.31296e+06
7.31123e+06
7.30946e+06
7.30763e+06
7.30576e+06
7.30383e+06
7.30186e+06
7.29984e+06
7.29778e+06
7.29566e+06
7.2935e+06
7.29128e+06
7.28902e+06
7.28671e+06
7.28434e+06
7.28193e+06
7.27947e+06
7.27696e+06
7.2744e+06
7.27179e+06
7.26913e+06
7.26643e+06
7.26367e+06
7.26086e+06
7.258e+06
7.2551e+06
7.25214e+06
7.24913e+06
7.24608e+06
7.24298e+06
7.23982e+06
7.23662e+06
7.23337e+06
7.23006e+06
7.22671e+06
7.22331e+06
7.21986e+06
7.21637e+06
7.21282e+06
7.20922e+06
7.20558e+06
7.20188e+06
7.35172e+06
7.3517e+06
7.35167e+06
7.35165e+06
7.35163e+06
7.35159e+06
7.35154e+06
7.35149e+06
7.35144e+06
7.35138e+06
7.35133e+06
7.35128e+06
7.35122e+06
7.35117e+06
7.35111e+06
7.35103e+06
7.35094e+06
7.35083e+06
7.35069e+06
7.35054e+06
7.35035e+06
7.35013e+06
7.34987e+06
7.34959e+06
7.34928e+06
7.34894e+06
7.34857e+06
7.34817e+06
7.34775e+06
7.3473e+06
7.34682e+06
7.34632e+06
7.34579e+06
7.34523e+06
7.34464e+06
7.34402e+06
7.34338e+06
7.34271e+06
7.34201e+06
7.34128e+06
7.34053e+06
7.33975e+06
7.33894e+06
7.3381e+06
7.33724e+06
7.33634e+06
7.33541e+06
7.33443e+06
7.33342e+06
7.33237e+06
7.33127e+06
7.33013e+06
7.32894e+06
7.32772e+06
7.32645e+06
7.32513e+06
7.32377e+06
7.32236e+06
7.32091e+06
7.31942e+06
7.31787e+06
7.31628e+06
7.31465e+06
7.31296e+06
7.31123e+06
7.30946e+06
7.30763e+06
7.30576e+06
7.30383e+06
7.30186e+06
7.29984e+06
7.29778e+06
7.29566e+06
7.2935e+06
7.29128e+06
7.28902e+06
7.28671e+06
7.28434e+06
7.28193e+06
7.27947e+06
7.27696e+06
7.2744e+06
7.27179e+06
7.26913e+06
7.26643e+06
7.26367e+06
7.26086e+06
7.258e+06
7.2551e+06
7.25214e+06
7.24913e+06
7.24608e+06
7.24298e+06
7.23982e+06
7.23662e+06
7.23337e+06
7.23006e+06
7.22671e+06
7.22331e+06
7.21986e+06
7.21637e+06
7.21282e+06
7.20922e+06
7.20558e+06
7.20188e+06
7.35172e+06
7.3517e+06
7.35167e+06
7.35165e+06
7.35163e+06
7.35159e+06
7.35154e+06
7.35149e+06
7.35144e+06
7.35138e+06
7.35133e+06
7.35128e+06
7.35122e+06
7.35117e+06
7.35111e+06
7.35103e+06
7.35094e+06
7.35083e+06
7.35069e+06
7.35054e+06
7.35035e+06
7.35013e+06
7.34987e+06
7.34959e+06
7.34928e+06
7.34894e+06
7.34857e+06
7.34817e+06
7.34775e+06
7.3473e+06
7.34682e+06
7.34632e+06
7.34579e+06
7.34523e+06
7.34464e+06
7.34402e+06
7.34338e+06
7.34271e+06
7.34201e+06
7.34128e+06
7.34053e+06
7.33975e+06
7.33894e+06
7.3381e+06
7.33724e+06
7.33634e+06
7.33541e+06
7.33443e+06
7.33342e+06
7.33237e+06
7.33127e+06
7.33013e+06
7.32894e+06
7.32772e+06
7.32645e+06
7.32513e+06
7.32377e+06
7.32236e+06
7.32091e+06
7.31942e+06
7.31787e+06
7.31628e+06
7.31465e+06
7.31296e+06
7.31123e+06
7.30946e+06
7.30763e+06
7.30576e+06
7.30383e+06
7.30186e+06
7.29984e+06
7.29778e+06
7.29566e+06
7.2935e+06
7.29128e+06
7.28902e+06
7.28671e+06
7.28434e+06
7.28193e+06
7.27947e+06
7.27696e+06
7.2744e+06
7.27179e+06
7.26913e+06
7.26643e+06
7.26367e+06
7.26086e+06
7.258e+06
7.2551e+06
7.25214e+06
7.24913e+06
7.24608e+06
7.24298e+06
7.23982e+06
7.23662e+06
7.23337e+06
7.23006e+06
7.22671e+06
7.22331e+06
7.21986e+06
7.21637e+06
7.21282e+06
7.20922e+06
7.20558e+06
7.20188e+06
7.35172e+06
7.3517e+06
7.35167e+06
7.35165e+06
7.35163e+06
7.35159e+06
7.35154e+06
7.35149e+06
7.35144e+06
7.35138e+06
7.35133e+06
7.35128e+06
7.35122e+06
7.35117e+06
7.35111e+06
7.35103e+06
7.35094e+06
7.35083e+06
7.35069e+06
7.35054e+06
7.35035e+06
7.35013e+06
7.34987e+06
7.34959e+06
7.34928e+06
7.34894e+06
7.34857e+06
7.34817e+06
7.34775e+06
7.3473e+06
7.34682e+06
7.34632e+06
7.34579e+06
7.34523e+06
7.34464e+06
7.34402e+06
7.34338e+06
7.34271e+06
7.34201e+06
7.34128e+06
7.34053e+06
7.33975e+06
7.33894e+06
7.3381e+06
7.33724e+06
7.33634e+06
7.33541e+06
7.33443e+06
7.33342e+06
7.33237e+06
7.33127e+06
7.33013e+06
7.32894e+06
7.32772e+06
7.32645e+06
7.32513e+06
7.32377e+06
7.32236e+06
7.32091e+06
7.31942e+06
7.31787e+06
7.31628e+06
7.31465e+06
7.31296e+06
7.31123e+06
7.30946e+06
7.30763e+06
7.30576e+06
7.30383e+06
7.30186e+06
7.29984e+06
7.29778e+06
7.29566e+06
7.2935e+06
7.29128e+06
7.28902e+06
7.28671e+06
7.28434e+06
7.28193e+06
7.27947e+06
7.27696e+06
7.2744e+06
7.27179e+06
7.26913e+06
7.26643e+06
7.26367e+06
7.26086e+06
7.258e+06
7.2551e+06
7.25214e+06
7.24913e+06
7.24608e+06
7.24298e+06
7.23982e+06
7.23662e+06
7.23337e+06
7.23006e+06
7.22671e+06
7.22331e+06
7.21986e+06
7.21637e+06
7.21282e+06
7.20922e+06
7.20558e+06
7.20188e+06
)
;
    }
}


// ************************************************************************* //
