/*--------------------------------*- C++ -*----------------------------------*\
| =========                 |                                                 |
| \\      /  F ield         | OpenFOAM: The Open Source CFD Toolbox           |
|  \\    /   O peration     | Version:  2406                                  |
|   \\  /    A nd           | Website:  www.openfoam.com                      |
|    \\/     M anipulation  |                                                 |
\*---------------------------------------------------------------------------*/
FoamFile
{
    version     2.0;
    format      ascii;
    arch        "LSB;label=32;scalar=64";
    class       volScalarField;
    location    "30/fluidRegion";
    object      alphaRhoMagU.vapour;
}
// * * * * * * * * * * * * * * * * * * * * * * * * * * * * * * * * * * * * * //

dimensions      [1 -2 -1 0 0 0 0];

internalField   nonuniform List<scalar> 
75
(
0
0
0
0
0
0.240905
0.519875
0.814969
1.16676
1.58796
2.09804
2.71658
3.466
4.37039
5.45377
6.74973
8.51856
10.5964
12.8203
15.1336
17.5179
19.962
22.4584
25.0007
27.5711
30.158
32.7591
35.3741
38.0041
40.6499
43.3119
45.99
48.6843
51.3952
54.1159
56.8158
59.5018
62.1995
64.9022
67.6122
70.3286
73.0517
75.7813
78.5177
81.2609
84.011
86.7681
89.5323
92.3036
95.0819
97.8672
100.659
103.459
106.265
109.077
111.896
114.722
117.554
120.392
123.237
126.087
128.943
131.805
134.672
137.544
140.422
143.305
146.192
149.085
151.98
154.886
157.778
160.726
163.53
166.76
)
;

boundaryField
{
    inlet
    {
        type            calculated;
        value           uniform 0;
    }
    outlet
    {
        type            calculated;
        value           uniform 166.741;
    }
    fixedWalls
    {
        type            calculated;
        value           nonuniform List<scalar> 
300
(
0
0
0
0
0
0.240905
0.519875
0.814969
1.16676
1.58796
2.09804
2.71658
3.466
4.37039
5.45377
6.74973
8.51856
10.5964
12.8203
15.1336
17.5179
19.962
22.4584
25.0007
27.5711
30.158
32.7591
35.3741
38.0041
40.6499
43.3119
45.99
48.6843
51.3952
54.1159
56.8158
59.5018
62.1995
64.9022
67.6122
70.3286
73.0517
75.7813
78.5177
81.2609
84.011
86.7681
89.5323
92.3036
95.0819
97.8672
100.659
103.459
106.265
109.077
111.896
114.722
117.554
120.392
123.237
126.087
128.943
131.805
134.672
137.544
140.422
143.305
146.192
149.085
151.98
154.886
157.778
160.726
163.53
166.76
0
0
0
0
0
0.240905
0.519875
0.814969
1.16676
1.58796
2.09804
2.71658
3.466
4.37039
5.45377
6.74973
8.51856
10.5964
12.8203
15.1336
17.5179
19.962
22.4584
25.0007
27.5711
30.158
32.7591
35.3741
38.0041
40.6499
43.3119
45.99
48.6843
51.3952
54.1159
56.8158
59.5018
62.1995
64.9022
67.6122
70.3286
73.0517
75.7813
78.5177
81.2609
84.011
86.7681
89.5323
92.3036
95.0819
97.8672
100.659
103.459
106.265
109.077
111.896
114.722
117.554
120.392
123.237
126.087
128.943
131.805
134.672
137.544
140.422
143.305
146.192
149.085
151.98
154.886
157.778
160.726
163.53
166.76
0
0
0
0
0
0.240905
0.519875
0.814969
1.16676
1.58796
2.09804
2.71658
3.466
4.37039
5.45377
6.74973
8.51856
10.5964
12.8203
15.1336
17.5179
19.962
22.4584
25.0007
27.5711
30.158
32.7591
35.3741
38.0041
40.6499
43.3119
45.99
48.6843
51.3952
54.1159
56.8158
59.5018
62.1995
64.9022
67.6122
70.3286
73.0517
75.7813
78.5177
81.2609
84.011
86.7681
89.5323
92.3036
95.0819
97.8672
100.659
103.459
106.265
109.077
111.896
114.722
117.554
120.392
123.237
126.087
128.943
131.805
134.672
137.544
140.422
143.305
146.192
149.085
151.98
154.886
157.778
160.726
163.53
166.76
0
0
0
0
0
0.240905
0.519875
0.814969
1.16676
1.58796
2.09804
2.71658
3.466
4.37039
5.45377
6.74973
8.51856
10.5964
12.8203
15.1336
17.5179
19.962
22.4584
25.0007
27.5711
30.158
32.7591
35.3741
38.0041
40.6499
43.3119
45.99
48.6843
51.3952
54.1159
56.8158
59.5018
62.1995
64.9022
67.6122
70.3286
73.0517
75.7813
78.5177
81.2609
84.011
86.7681
89.5323
92.3036
95.0819
97.8672
100.659
103.459
106.265
109.077
111.896
114.722
117.554
120.392
123.237
126.087
128.943
131.805
134.672
137.544
140.422
143.305
146.192
149.085
151.98
154.886
157.778
160.726
163.53
166.76
)
;
    }
}


// ************************************************************************* //
