/*--------------------------------*- C++ -*----------------------------------*\
| =========                 |                                                 |
| \\      /  F ield         | OpenFOAM: The Open Source CFD Toolbox           |
|  \\    /   O peration     | Version:  2406                                  |
|   \\  /    A nd           | Website:  www.openfoam.com                      |
|    \\/     M anipulation  |                                                 |
\*---------------------------------------------------------------------------*/
FoamFile
{
    version     2.0;
    format      ascii;
    arch        "LSB;label=32;scalar=64";
    class       volScalarField;
    location    "30/fluidRegion";
    object      dgdt.vapour;
}
// * * * * * * * * * * * * * * * * * * * * * * * * * * * * * * * * * * * * * //

dimensions      [0 0 -1 0 0 0 0];

internalField   nonuniform List<scalar> 
75
(
-0
-0
-0
-0
-0
0.442463
0.420198
0.483511
0.57332
0.692723
0.841883
1.02488
1.24576
1.5076
1.81084
2.15014
3.08999
3.45936
3.65739
3.79726
3.90842
4.00188
4.08279
4.15399
4.18703
4.20792
4.22858
4.24905
4.27218
4.29656
4.32138
4.34645
4.37159
4.39663
4.42147
4.41999
4.39229
4.38771
4.39037
4.39651
4.4047
4.41422
4.42466
4.43577
4.44734
4.45926
4.47142
4.48373
4.49614
4.5086
4.52105
4.53348
4.54586
4.55815
4.57035
4.58245
4.59441
4.60625
4.61795
4.62949
4.64088
4.6521
4.66314
4.67401
4.6847
4.69519
4.7055
4.71562
4.72554
4.7353
4.74478
4.75434
4.76303
4.77343
4.8088
)
;

boundaryField
{
    inlet
    {
        type            calculated;
        value           uniform -0;
    }
    outlet
    {
        type            calculated;
        value           uniform 4.8088;
    }
    fixedWalls
    {
        type            calculated;
        value           nonuniform List<scalar> 
300
(
-0
-0
-0
-0
-0
0.442463
0.420198
0.483511
0.57332
0.692723
0.841883
1.02488
1.24576
1.5076
1.81084
2.15014
3.08999
3.45936
3.65739
3.79726
3.90842
4.00188
4.08279
4.15399
4.18703
4.20792
4.22858
4.24905
4.27218
4.29656
4.32138
4.34645
4.37159
4.39663
4.42147
4.41999
4.39229
4.38771
4.39037
4.39651
4.4047
4.41422
4.42466
4.43577
4.44734
4.45926
4.47142
4.48373
4.49614
4.5086
4.52105
4.53348
4.54586
4.55815
4.57035
4.58245
4.59441
4.60625
4.61795
4.62949
4.64088
4.6521
4.66314
4.67401
4.6847
4.69519
4.7055
4.71562
4.72554
4.7353
4.74478
4.75434
4.76303
4.77343
4.8088
-0
-0
-0
-0
-0
0.442463
0.420198
0.483511
0.57332
0.692723
0.841883
1.02488
1.24576
1.5076
1.81084
2.15014
3.08999
3.45936
3.65739
3.79726
3.90842
4.00188
4.08279
4.15399
4.18703
4.20792
4.22858
4.24905
4.27218
4.29656
4.32138
4.34645
4.37159
4.39663
4.42147
4.41999
4.39229
4.38771
4.39037
4.39651
4.4047
4.41422
4.42466
4.43577
4.44734
4.45926
4.47142
4.48373
4.49614
4.5086
4.52105
4.53348
4.54586
4.55815
4.57035
4.58245
4.59441
4.60625
4.61795
4.62949
4.64088
4.6521
4.66314
4.67401
4.6847
4.69519
4.7055
4.71562
4.72554
4.7353
4.74478
4.75434
4.76303
4.77343
4.8088
-0
-0
-0
-0
-0
0.442463
0.420198
0.483511
0.57332
0.692723
0.841883
1.02488
1.24576
1.5076
1.81084
2.15014
3.08999
3.45936
3.65739
3.79726
3.90842
4.00188
4.08279
4.15399
4.18703
4.20792
4.22858
4.24905
4.27218
4.29656
4.32138
4.34645
4.37159
4.39663
4.42147
4.41999
4.39229
4.38771
4.39037
4.39651
4.4047
4.41422
4.42466
4.43577
4.44734
4.45926
4.47142
4.48373
4.49614
4.5086
4.52105
4.53348
4.54586
4.55815
4.57035
4.58245
4.59441
4.60625
4.61795
4.62949
4.64088
4.6521
4.66314
4.67401
4.6847
4.69519
4.7055
4.71562
4.72554
4.7353
4.74478
4.75434
4.76303
4.77343
4.8088
-0
-0
-0
-0
-0
0.442463
0.420198
0.483511
0.57332
0.692723
0.841883
1.02488
1.24576
1.5076
1.81084
2.15014
3.08999
3.45936
3.65739
3.79726
3.90842
4.00188
4.08279
4.15399
4.18703
4.20792
4.22858
4.24905
4.27218
4.29656
4.32138
4.34645
4.37159
4.39663
4.42147
4.41999
4.39229
4.38771
4.39037
4.39651
4.4047
4.41422
4.42466
4.43577
4.44734
4.45926
4.47142
4.48373
4.49614
4.5086
4.52105
4.53348
4.54586
4.55815
4.57035
4.58245
4.59441
4.60625
4.61795
4.62949
4.64088
4.6521
4.66314
4.67401
4.6847
4.69519
4.7055
4.71562
4.72554
4.7353
4.74478
4.75434
4.76303
4.77343
4.8088
)
;
    }
}


// ************************************************************************* //
