/*--------------------------------*- C++ -*----------------------------------*\
| =========                 |                                                 |
| \\      /  F ield         | OpenFOAM: The Open Source CFD Toolbox           |
|  \\    /   O peration     | Version:  2406                                  |
|   \\  /    A nd           | Website:  www.openfoam.com                      |
|    \\/     M anipulation  |                                                 |
\*---------------------------------------------------------------------------*/
FoamFile
{
    version     2.0;
    format      ascii;
    arch        "LSB;label=32;scalar=64";
    class       volTensorField;
    location    "30/fluidRegion";
    object      Kd.liquid.structure;
}
// * * * * * * * * * * * * * * * * * * * * * * * * * * * * * * * * * * * * * //

dimensions      [1 -3 -1 0 0 0 0];

internalField   nonuniform List<tensor> 
75
(
(418.515 0 0 0 418.515 0 0 0 418.515)
(418.515 0 0 0 418.515 0 0 0 418.515)
(418.515 0 0 0 418.515 0 0 0 418.515)
(418.515 0 0 0 418.515 0 0 0 418.515)
(418.515 0 0 0 418.515 0 0 0 418.515)
(458.961 0 0 0 458.961 0 0 0 458.961)
(501.218 0 0 0 501.218 0 0 0 501.218)
(541.707 0 0 0 541.707 0 0 0 541.707)
(587.026 0 0 0 587.026 0 0 0 587.026)
(638.245 0 0 0 638.245 0 0 0 638.245)
(696.938 0 0 0 696.938 0 0 0 696.938)
(764.261 0 0 0 764.261 0 0 0 764.261)
(841.3 0 0 0 841.3 0 0 0 841.3)
(928.918 0 0 0 928.918 0 0 0 928.918)
(1027.62 0 0 0 1027.62 0 0 0 1027.62)
(1137.86 0 0 0 1137.86 0 0 0 1137.86)
(1277.74 0 0 0 1277.74 0 0 0 1277.74)
(1432.24 0 0 0 1432.24 0 0 0 1432.24)
(1585.53 0 0 0 1585.53 0 0 0 1585.53)
(1733.86 0 0 0 1733.86 0 0 0 1733.86)
(1877.05 0 0 0 1877.05 0 0 0 1877.05)
(2015.45 0 0 0 2015.45 0 0 0 2015.45)
(2149.52 0 0 0 2149.52 0 0 0 2149.52)
(2279.72 0 0 0 2279.72 0 0 0 2279.72)
(2405.92 0 0 0 2405.92 0 0 0 2405.92)
(2528.08 0 0 0 2528.08 0 0 0 2528.08)
(2646.62 0 0 0 2646.62 0 0 0 2646.62)
(2762.02 0 0 0 2762.02 0 0 0 2762.02)
(2874.71 0 0 0 2874.71 0 0 0 2874.71)
(2985.05 0 0 0 2985.05 0 0 0 2985.05)
(3093.34 0 0 0 3093.34 0 0 0 3093.34)
(3199.79 0 0 0 3199.79 0 0 0 3199.79)
(3304.62 0 0 0 3304.62 0 0 0 3304.62)
(3407.97 0 0 0 3407.97 0 0 0 3407.97)
(3510.31 0 0 0 3510.31 0 0 0 3510.31)
(3636.98 0 0 0 3636.98 0 0 0 3636.98)
(3832.56 0 0 0 3832.56 0 0 0 3832.56)
(4030.26 0 0 0 4030.26 0 0 0 4030.26)
(4229.99 0 0 0 4229.99 0 0 0 4229.99)
(4432.3 0 0 0 4432.3 0 0 0 4432.3)
(4637.34 0 0 0 4637.34 0 0 0 4637.34)
(4845.26 0 0 0 4845.26 0 0 0 4845.26)
(5056.15 0 0 0 5056.15 0 0 0 5056.15)
(5270.09 0 0 0 5270.09 0 0 0 5270.09)
(5487.13 0 0 0 5487.13 0 0 0 5487.13)
(5707.34 0 0 0 5707.34 0 0 0 5707.34)
(5930.74 0 0 0 5930.74 0 0 0 5930.74)
(6157.4 0 0 0 6157.4 0 0 0 6157.4)
(6387.34 0 0 0 6387.34 0 0 0 6387.34)
(6620.62 0 0 0 6620.62 0 0 0 6620.62)
(6857.27 0 0 0 6857.27 0 0 0 6857.27)
(7097.33 0 0 0 7097.33 0 0 0 7097.33)
(7340.85 0 0 0 7340.85 0 0 0 7340.85)
(7587.88 0 0 0 7587.88 0 0 0 7587.88)
(7838.45 0 0 0 7838.45 0 0 0 7838.45)
(8092.63 0 0 0 8092.63 0 0 0 8092.63)
(8350.46 0 0 0 8350.46 0 0 0 8350.46)
(8611.98 0 0 0 8611.98 0 0 0 8611.98)
(8877.27 0 0 0 8877.27 0 0 0 8877.27)
(9146.37 0 0 0 9146.37 0 0 0 9146.37)
(9419.34 0 0 0 9419.34 0 0 0 9419.34)
(9696.25 0 0 0 9696.25 0 0 0 9696.25)
(9977.15 0 0 0 9977.15 0 0 0 9977.15)
(10262.1 0 0 0 10262.1 0 0 0 10262.1)
(10551.2 0 0 0 10551.2 0 0 0 10551.2)
(10844.5 0 0 0 10844.5 0 0 0 10844.5)
(11142.2 0 0 0 11142.2 0 0 0 11142.2)
(11444.1 0 0 0 11444.1 0 0 0 11444.1)
(11750.7 0 0 0 11750.7 0 0 0 11750.7)
(12061 0 0 0 12061 0 0 0 12061)
(12378.2 0 0 0 12378.2 0 0 0 12378.2)
(12693.6 0 0 0 12693.6 0 0 0 12693.6)
(13032.6 0 0 0 13032.6 0 0 0 13032.6)
(13322.8 0 0 0 13322.8 0 0 0 13322.8)
(13771.5 0 0 0 13771.5 0 0 0 13771.5)
)
;

boundaryField
{
    inlet
    {
        type            zeroGradient;
    }
    outlet
    {
        type            zeroGradient;
    }
    fixedWalls
    {
        type            zeroGradient;
    }
}


// ************************************************************************* //
