/*--------------------------------*- C++ -*----------------------------------*\
| =========                 |                                                 |
| \\      /  F ield         | OpenFOAM: The Open Source CFD Toolbox           |
|  \\    /   O peration     | Version:  2406                                  |
|   \\  /    A nd           | Website:  www.openfoam.com                      |
|    \\/     M anipulation  |                                                 |
\*---------------------------------------------------------------------------*/
FoamFile
{
    version     2.0;
    format      ascii;
    arch        "LSB;label=32;scalar=64";
    class       volTensorField;
    location    "30/fluidRegion";
    object      KdTotU;
}
// * * * * * * * * * * * * * * * * * * * * * * * * * * * * * * * * * * * * * //

dimensions      [1 -2 -2 0 0 0 0];

internalField   nonuniform List<tensor> 
75
(
(539.499 0 0 0 539.499 0 0 0 539.499)
(539.499 0 0 0 539.499 0 0 0 539.499)
(539.499 0 0 0 539.499 0 0 0 539.499)
(539.499 0 0 0 539.499 0 0 0 539.499)
(539.499 0 0 0 539.499 0 0 0 539.499)
(595.268 0 0 0 595.268 0 0 0 595.268)
(657.517 0 0 0 657.517 0 0 0 657.517)
(718.447 0 0 0 718.447 0 0 0 718.447)
(787.928 0 0 0 787.928 0 0 0 787.928)
(868.292 0 0 0 868.292 0 0 0 868.292)
(962.68 0 0 0 962.68 0 0 0 962.68)
(1073.96 0 0 0 1073.96 0 0 0 1073.96)
(1205.22 0 0 0 1205.22 0 0 0 1205.22)
(1359.62 0 0 0 1359.62 0 0 0 1359.62)
(1540.08 0 0 0 1540.08 0 0 0 1540.08)
(1750.25 0 0 0 1750.25 0 0 0 1750.25)
(2025.87 0 0 0 2025.87 0 0 0 2025.87)
(2347.62 0 0 0 2347.62 0 0 0 2347.62)
(2685.27 0 0 0 2685.27 0 0 0 2685.27)
(3029.56 0 0 0 3029.56 0 0 0 3029.56)
(3377.66 0 0 0 3377.66 0 0 0 3377.66)
(3728.05 0 0 0 3728.05 0 0 0 3728.05)
(4079.8 0 0 0 4079.8 0 0 0 4079.8)
(4432.18 0 0 0 4432.18 0 0 0 4432.18)
(4783.19 0 0 0 4783.19 0 0 0 4783.19)
(5131.18 0 0 0 5131.18 0 0 0 5131.18)
(5475.92 0 0 0 5475.92 0 0 0 5475.92)
(5817.55 0 0 0 5817.55 0 0 0 5817.55)
(6156.34 0 0 0 6156.34 0 0 0 6156.34)
(6492.51 0 0 0 6492.51 0 0 0 6492.51)
(6826.21 0 0 0 6826.21 0 0 0 6826.21)
(7157.53 0 0 0 7157.53 0 0 0 7157.53)
(7486.52 0 0 0 7486.52 0 0 0 7486.52)
(7813.22 0 0 0 7813.22 0 0 0 7813.22)
(8137.62 0 0 0 8137.62 0 0 0 8137.62)
(8513.72 0 0 0 8513.72 0 0 0 8513.72)
(9042.56 0 0 0 9042.56 0 0 0 9042.56)
(9569.96 0 0 0 9569.96 0 0 0 9569.96)
(10098.5 0 0 0 10098.5 0 0 0 10098.5)
(10630.4 0 0 0 10630.4 0 0 0 10630.4)
(11166.3 0 0 0 11166.3 0 0 0 11166.3)
(11706.8 0 0 0 11706.8 0 0 0 11706.8)
(12252 0 0 0 12252 0 0 0 12252)
(12801.8 0 0 0 12801.8 0 0 0 12801.8)
(13356.3 0 0 0 13356.3 0 0 0 13356.3)
(13915.1 0 0 0 13915.1 0 0 0 13915.1)
(14478.1 0 0 0 14478.1 0 0 0 14478.1)
(15045 0 0 0 15045 0 0 0 15045)
(15615.7 0 0 0 15615.7 0 0 0 15615.7)
(16189.9 0 0 0 16189.9 0 0 0 16189.9)
(16767.3 0 0 0 16767.3 0 0 0 16767.3)
(17347.8 0 0 0 17347.8 0 0 0 17347.8)
(17931 0 0 0 17931 0 0 0 17931)
(18516.9 0 0 0 18516.9 0 0 0 18516.9)
(19105.2 0 0 0 19105.2 0 0 0 19105.2)
(19695.6 0 0 0 19695.6 0 0 0 19695.6)
(20287.9 0 0 0 20287.9 0 0 0 20287.9)
(20882.1 0 0 0 20882.1 0 0 0 20882.1)
(21477.8 0 0 0 21477.8 0 0 0 21477.8)
(22074.8 0 0 0 22074.8 0 0 0 22074.8)
(22673 0 0 0 22673 0 0 0 22673)
(23272.2 0 0 0 23272.2 0 0 0 23272.2)
(23872.2 0 0 0 23872.2 0 0 0 23872.2)
(24472.9 0 0 0 24472.9 0 0 0 24472.9)
(25074 0 0 0 25074 0 0 0 25074)
(25675.3 0 0 0 25675.3 0 0 0 25675.3)
(26276.9 0 0 0 26276.9 0 0 0 26276.9)
(26878.1 0 0 0 26878.1 0 0 0 26878.1)
(27479.8 0 0 0 27479.8 0 0 0 27479.8)
(28079.1 0 0 0 28079.1 0 0 0 28079.1)
(28683.8 0 0 0 28683.8 0 0 0 28683.8)
(29270.4 0 0 0 29270.4 0 0 0 29270.4)
(29906.4 0 0 0 29906.4 0 0 0 29906.4)
(30398.3 0 0 0 30398.3 0 0 0 30398.3)
(31295.4 0 0 0 31295.4 0 0 0 31295.4)
)
;

boundaryField
{
    inlet
    {
        type            zeroGradient;
    }
    outlet
    {
        type            zeroGradient;
    }
    fixedWalls
    {
        type            zeroGradient;
    }
}


// ************************************************************************* //
