/*--------------------------------*- C++ -*----------------------------------*\
| =========                 |                                                 |
| \\      /  F ield         | OpenFOAM: The Open Source CFD Toolbox           |
|  \\    /   O peration     | Version:  2406                                  |
|   \\  /    A nd           | Website:  www.openfoam.com                      |
|    \\/     M anipulation  |                                                 |
\*---------------------------------------------------------------------------*/
FoamFile
{
    version     2.0;
    format      ascii;
    arch        "LSB;label=32;scalar=64";
    class       volScalarField;
    location    "30/fluidRegion";
    object      p;
}
// * * * * * * * * * * * * * * * * * * * * * * * * * * * * * * * * * * * * * //

dimensions      [1 -1 -2 0 0 0 0];

internalField   nonuniform List<scalar> 
75
(
7.24591e+06
7.24589e+06
7.24587e+06
7.24585e+06
7.24582e+06
7.2458e+06
7.24576e+06
7.24572e+06
7.24567e+06
7.24562e+06
7.24556e+06
7.24549e+06
7.24541e+06
7.24533e+06
7.24523e+06
7.24512e+06
7.24499e+06
7.24483e+06
7.24466e+06
7.24446e+06
7.24426e+06
7.24403e+06
7.24379e+06
7.24353e+06
7.24326e+06
7.24297e+06
7.24266e+06
7.24234e+06
7.24201e+06
7.24166e+06
7.24129e+06
7.24091e+06
7.24051e+06
7.2401e+06
7.23967e+06
7.23922e+06
7.23876e+06
7.23827e+06
7.23775e+06
7.23722e+06
7.23665e+06
7.23607e+06
7.23545e+06
7.23481e+06
7.23414e+06
7.23345e+06
7.23273e+06
7.23198e+06
7.2312e+06
7.2304e+06
7.22956e+06
7.2287e+06
7.22781e+06
7.22689e+06
7.22595e+06
7.22497e+06
7.22397e+06
7.22293e+06
7.22187e+06
7.22078e+06
7.21965e+06
7.2185e+06
7.21732e+06
7.21611e+06
7.21487e+06
7.21359e+06
7.21229e+06
7.21096e+06
7.2096e+06
7.20821e+06
7.20679e+06
7.20534e+06
7.20386e+06
7.20235e+06
7.2008e+06
)
;

boundaryField
{
    inlet
    {
        type            calculated;
        value           uniform 7.24592e+06;
    }
    outlet
    {
        type            calculated;
        value           uniform 7.2e+06;
    }
    fixedWalls
    {
        type            calculated;
        value           nonuniform List<scalar> 
300
(
7.24591e+06
7.24589e+06
7.24587e+06
7.24585e+06
7.24582e+06
7.2458e+06
7.24576e+06
7.24572e+06
7.24567e+06
7.24562e+06
7.24556e+06
7.24549e+06
7.24541e+06
7.24533e+06
7.24523e+06
7.24512e+06
7.24499e+06
7.24483e+06
7.24466e+06
7.24446e+06
7.24426e+06
7.24403e+06
7.24379e+06
7.24353e+06
7.24326e+06
7.24297e+06
7.24266e+06
7.24234e+06
7.24201e+06
7.24166e+06
7.24129e+06
7.24091e+06
7.24051e+06
7.2401e+06
7.23967e+06
7.23922e+06
7.23876e+06
7.23827e+06
7.23775e+06
7.23722e+06
7.23665e+06
7.23607e+06
7.23545e+06
7.23481e+06
7.23414e+06
7.23345e+06
7.23273e+06
7.23198e+06
7.2312e+06
7.2304e+06
7.22956e+06
7.2287e+06
7.22781e+06
7.22689e+06
7.22595e+06
7.22497e+06
7.22397e+06
7.22293e+06
7.22187e+06
7.22078e+06
7.21965e+06
7.2185e+06
7.21732e+06
7.21611e+06
7.21487e+06
7.21359e+06
7.21229e+06
7.21096e+06
7.2096e+06
7.20821e+06
7.20679e+06
7.20534e+06
7.20386e+06
7.20235e+06
7.2008e+06
7.24591e+06
7.24589e+06
7.24587e+06
7.24585e+06
7.24582e+06
7.2458e+06
7.24576e+06
7.24572e+06
7.24567e+06
7.24562e+06
7.24556e+06
7.24549e+06
7.24541e+06
7.24533e+06
7.24523e+06
7.24512e+06
7.24499e+06
7.24483e+06
7.24466e+06
7.24446e+06
7.24426e+06
7.24403e+06
7.24379e+06
7.24353e+06
7.24326e+06
7.24297e+06
7.24266e+06
7.24234e+06
7.24201e+06
7.24166e+06
7.24129e+06
7.24091e+06
7.24051e+06
7.2401e+06
7.23967e+06
7.23922e+06
7.23876e+06
7.23827e+06
7.23775e+06
7.23722e+06
7.23665e+06
7.23607e+06
7.23545e+06
7.23481e+06
7.23414e+06
7.23345e+06
7.23273e+06
7.23198e+06
7.2312e+06
7.2304e+06
7.22956e+06
7.2287e+06
7.22781e+06
7.22689e+06
7.22595e+06
7.22497e+06
7.22397e+06
7.22293e+06
7.22187e+06
7.22078e+06
7.21965e+06
7.2185e+06
7.21732e+06
7.21611e+06
7.21487e+06
7.21359e+06
7.21229e+06
7.21096e+06
7.2096e+06
7.20821e+06
7.20679e+06
7.20534e+06
7.20386e+06
7.20235e+06
7.2008e+06
7.24591e+06
7.24589e+06
7.24587e+06
7.24585e+06
7.24582e+06
7.2458e+06
7.24576e+06
7.24572e+06
7.24567e+06
7.24562e+06
7.24556e+06
7.24549e+06
7.24541e+06
7.24533e+06
7.24523e+06
7.24512e+06
7.24499e+06
7.24483e+06
7.24466e+06
7.24446e+06
7.24426e+06
7.24403e+06
7.24379e+06
7.24353e+06
7.24326e+06
7.24297e+06
7.24266e+06
7.24234e+06
7.24201e+06
7.24166e+06
7.24129e+06
7.24091e+06
7.24051e+06
7.2401e+06
7.23967e+06
7.23922e+06
7.23876e+06
7.23827e+06
7.23775e+06
7.23722e+06
7.23665e+06
7.23607e+06
7.23545e+06
7.23481e+06
7.23414e+06
7.23345e+06
7.23273e+06
7.23198e+06
7.2312e+06
7.2304e+06
7.22956e+06
7.2287e+06
7.22781e+06
7.22689e+06
7.22595e+06
7.22497e+06
7.22397e+06
7.22293e+06
7.22187e+06
7.22078e+06
7.21965e+06
7.2185e+06
7.21732e+06
7.21611e+06
7.21487e+06
7.21359e+06
7.21229e+06
7.21096e+06
7.2096e+06
7.20821e+06
7.20679e+06
7.20534e+06
7.20386e+06
7.20235e+06
7.2008e+06
7.24591e+06
7.24589e+06
7.24587e+06
7.24585e+06
7.24582e+06
7.2458e+06
7.24576e+06
7.24572e+06
7.24567e+06
7.24562e+06
7.24556e+06
7.24549e+06
7.24541e+06
7.24533e+06
7.24523e+06
7.24512e+06
7.24499e+06
7.24483e+06
7.24466e+06
7.24446e+06
7.24426e+06
7.24403e+06
7.24379e+06
7.24353e+06
7.24326e+06
7.24297e+06
7.24266e+06
7.24234e+06
7.24201e+06
7.24166e+06
7.24129e+06
7.24091e+06
7.24051e+06
7.2401e+06
7.23967e+06
7.23922e+06
7.23876e+06
7.23827e+06
7.23775e+06
7.23722e+06
7.23665e+06
7.23607e+06
7.23545e+06
7.23481e+06
7.23414e+06
7.23345e+06
7.23273e+06
7.23198e+06
7.2312e+06
7.2304e+06
7.22956e+06
7.2287e+06
7.22781e+06
7.22689e+06
7.22595e+06
7.22497e+06
7.22397e+06
7.22293e+06
7.22187e+06
7.22078e+06
7.21965e+06
7.2185e+06
7.21732e+06
7.21611e+06
7.21487e+06
7.21359e+06
7.21229e+06
7.21096e+06
7.2096e+06
7.20821e+06
7.20679e+06
7.20534e+06
7.20386e+06
7.20235e+06
7.2008e+06
)
;
    }
}


// ************************************************************************* //
