/*--------------------------------*- C++ -*----------------------------------*\
| =========                 |                                                 |
| \\      /  F ield         | OpenFOAM: The Open Source CFD Toolbox           |
|  \\    /   O peration     | Version:  2406                                  |
|   \\  /    A nd           | Website:  www.openfoam.com                      |
|    \\/     M anipulation  |                                                 |
\*---------------------------------------------------------------------------*/
FoamFile
{
    version     2.0;
    format      ascii;
    arch        "LSB;label=32;scalar=64";
    class       volScalarField;
    location    "30/fluidRegion";
    object      alphaRhoMagU.vapour;
}
// * * * * * * * * * * * * * * * * * * * * * * * * * * * * * * * * * * * * * //

dimensions      [1 -2 -1 0 0 0 0];

internalField   nonuniform List<scalar> 
70
(
9.28142
10.2073
10.9673
11.7641
12.5331
13.2994
14.06
14.8196
15.5793
16.3404
17.1034
17.8688
18.6369
19.4076
20.1811
20.9574
21.7365
22.5182
23.3027
24.0897
24.8794
25.6715
26.4662
27.2633
28.0627
28.8645
29.6686
30.4749
31.2833
32.0938
32.9065
33.7212
34.5378
35.3563
36.1773
37.0014
37.8285
38.6586
39.4916
40.3274
41.166
42.0074
42.8514
43.6979
44.547
45.3984
46.2521
47.1082
47.9664
48.8268
49.6894
50.5538
51.4202
52.2885
53.1585
54.0303
54.904
55.7758
56.6358
57.4856
58.3307
59.1718
60.0104
60.8473
61.6829
62.5175
63.3514
64.1863
65.0134
65.8881
)
;

boundaryField
{
    inlet
    {
        type            calculated;
        value           uniform 9.11138;
    }
    outlet
    {
        type            calculated;
        value           uniform 65.8863;
    }
    fixedWalls
    {
        type            calculated;
        value           nonuniform List<scalar> 
280
(
9.28142
10.2073
10.9673
11.7641
12.5331
13.2994
14.06
14.8196
15.5793
16.3404
17.1034
17.8688
18.6369
19.4076
20.1811
20.9574
21.7365
22.5182
23.3027
24.0897
24.8794
25.6715
26.4662
27.2633
28.0627
28.8645
29.6686
30.4749
31.2833
32.0938
32.9065
33.7212
34.5378
35.3563
36.1773
37.0014
37.8285
38.6586
39.4916
40.3274
41.166
42.0074
42.8514
43.6979
44.547
45.3984
46.2521
47.1082
47.9664
48.8268
49.6894
50.5538
51.4202
52.2885
53.1585
54.0303
54.904
55.7758
56.6358
57.4856
58.3307
59.1718
60.0104
60.8473
61.6829
62.5175
63.3514
64.1863
65.0134
65.8881
9.28142
10.2073
10.9673
11.7641
12.5331
13.2994
14.06
14.8196
15.5793
16.3404
17.1034
17.8688
18.6369
19.4076
20.1811
20.9574
21.7365
22.5182
23.3027
24.0897
24.8794
25.6715
26.4662
27.2633
28.0627
28.8645
29.6686
30.4749
31.2833
32.0938
32.9065
33.7212
34.5378
35.3563
36.1773
37.0014
37.8285
38.6586
39.4916
40.3274
41.166
42.0074
42.8514
43.6979
44.547
45.3984
46.2521
47.1082
47.9664
48.8268
49.6894
50.5538
51.4202
52.2885
53.1585
54.0303
54.904
55.7758
56.6358
57.4856
58.3307
59.1718
60.0104
60.8473
61.6829
62.5175
63.3514
64.1863
65.0134
65.8881
9.28142
10.2073
10.9673
11.7641
12.5331
13.2994
14.06
14.8196
15.5793
16.3404
17.1034
17.8688
18.6369
19.4076
20.1811
20.9574
21.7365
22.5182
23.3027
24.0897
24.8794
25.6715
26.4662
27.2633
28.0627
28.8645
29.6686
30.4749
31.2833
32.0938
32.9065
33.7212
34.5378
35.3563
36.1773
37.0014
37.8285
38.6586
39.4916
40.3274
41.166
42.0074
42.8514
43.6979
44.547
45.3984
46.2521
47.1082
47.9664
48.8268
49.6894
50.5538
51.4202
52.2885
53.1585
54.0303
54.904
55.7758
56.6358
57.4856
58.3307
59.1718
60.0104
60.8473
61.6829
62.5175
63.3514
64.1863
65.0134
65.8881
9.28142
10.2073
10.9673
11.7641
12.5331
13.2994
14.06
14.8196
15.5793
16.3404
17.1034
17.8688
18.6369
19.4076
20.1811
20.9574
21.7365
22.5182
23.3027
24.0897
24.8794
25.6715
26.4662
27.2633
28.0627
28.8645
29.6686
30.4749
31.2833
32.0938
32.9065
33.7212
34.5378
35.3563
36.1773
37.0014
37.8285
38.6586
39.4916
40.3274
41.166
42.0074
42.8514
43.6979
44.547
45.3984
46.2521
47.1082
47.9664
48.8268
49.6894
50.5538
51.4202
52.2885
53.1585
54.0303
54.904
55.7758
56.6358
57.4856
58.3307
59.1718
60.0104
60.8473
61.6829
62.5175
63.3514
64.1863
65.0134
65.8881
)
;
    }
}


// ************************************************************************* //
