/*--------------------------------*- C++ -*----------------------------------*\
| =========                 |                                                 |
| \\      /  F ield         | OpenFOAM: The Open Source CFD Toolbox           |
|  \\    /   O peration     | Version:  2406                                  |
|   \\  /    A nd           | Website:  www.openfoam.com                      |
|    \\/     M anipulation  |                                                 |
\*---------------------------------------------------------------------------*/
FoamFile
{
    version     2.0;
    format      ascii;
    arch        "LSB;label=32;scalar=64";
    class       volScalarField;
    location    "30/fluidRegion";
    object      dgdt.vapour;
}
// * * * * * * * * * * * * * * * * * * * * * * * * * * * * * * * * * * * * * //

dimensions      [0 0 -1 0 0 0 0];

internalField   nonuniform List<scalar> 
70
(
1.43031
1.45016
1.46654
1.48029
1.49172
1.50149
1.5101
1.51792
1.52519
1.53206
1.53865
1.54501
1.55117
1.55717
1.56302
1.56873
1.57432
1.5798
1.58516
1.59041
1.59555
1.6006
1.60554
1.61038
1.61512
1.61976
1.6243
1.62874
1.63309
1.63735
1.64151
1.64559
1.64958
1.65349
1.65891
1.66527
1.67149
1.67757
1.6835
1.68929
1.69494
1.70044
1.70579
1.71099
1.71604
1.72096
1.72574
1.73038
1.73488
1.73924
1.74346
1.74754
1.75149
1.75531
1.759
1.76256
1.76599
1.76929
1.75249
1.72629
1.71152
1.70231
1.69628
1.69228
1.68966
1.68804
1.68719
1.68684
1.68729
1.68978
)
;

boundaryField
{
    inlet
    {
        type            calculated;
        value           uniform 1.43031;
    }
    outlet
    {
        type            calculated;
        value           uniform 1.68978;
    }
    fixedWalls
    {
        type            calculated;
        value           nonuniform List<scalar> 
280
(
1.43031
1.45016
1.46654
1.48029
1.49172
1.50149
1.5101
1.51792
1.52519
1.53206
1.53865
1.54501
1.55117
1.55717
1.56302
1.56873
1.57432
1.5798
1.58516
1.59041
1.59555
1.6006
1.60554
1.61038
1.61512
1.61976
1.6243
1.62874
1.63309
1.63735
1.64151
1.64559
1.64958
1.65349
1.65891
1.66527
1.67149
1.67757
1.6835
1.68929
1.69494
1.70044
1.70579
1.71099
1.71604
1.72096
1.72574
1.73038
1.73488
1.73924
1.74346
1.74754
1.75149
1.75531
1.759
1.76256
1.76599
1.76929
1.75249
1.72629
1.71152
1.70231
1.69628
1.69228
1.68966
1.68804
1.68719
1.68684
1.68729
1.68978
1.43031
1.45016
1.46654
1.48029
1.49172
1.50149
1.5101
1.51792
1.52519
1.53206
1.53865
1.54501
1.55117
1.55717
1.56302
1.56873
1.57432
1.5798
1.58516
1.59041
1.59555
1.6006
1.60554
1.61038
1.61512
1.61976
1.6243
1.62874
1.63309
1.63735
1.64151
1.64559
1.64958
1.65349
1.65891
1.66527
1.67149
1.67757
1.6835
1.68929
1.69494
1.70044
1.70579
1.71099
1.71604
1.72096
1.72574
1.73038
1.73488
1.73924
1.74346
1.74754
1.75149
1.75531
1.759
1.76256
1.76599
1.76929
1.75249
1.72629
1.71152
1.70231
1.69628
1.69228
1.68966
1.68804
1.68719
1.68684
1.68729
1.68978
1.43031
1.45016
1.46654
1.48029
1.49172
1.50149
1.5101
1.51792
1.52519
1.53206
1.53865
1.54501
1.55117
1.55717
1.56302
1.56873
1.57432
1.5798
1.58516
1.59041
1.59555
1.6006
1.60554
1.61038
1.61512
1.61976
1.6243
1.62874
1.63309
1.63735
1.64151
1.64559
1.64958
1.65349
1.65891
1.66527
1.67149
1.67757
1.6835
1.68929
1.69494
1.70044
1.70579
1.71099
1.71604
1.72096
1.72574
1.73038
1.73488
1.73924
1.74346
1.74754
1.75149
1.75531
1.759
1.76256
1.76599
1.76929
1.75249
1.72629
1.71152
1.70231
1.69628
1.69228
1.68966
1.68804
1.68719
1.68684
1.68729
1.68978
1.43031
1.45016
1.46654
1.48029
1.49172
1.50149
1.5101
1.51792
1.52519
1.53206
1.53865
1.54501
1.55117
1.55717
1.56302
1.56873
1.57432
1.5798
1.58516
1.59041
1.59555
1.6006
1.60554
1.61038
1.61512
1.61976
1.6243
1.62874
1.63309
1.63735
1.64151
1.64559
1.64958
1.65349
1.65891
1.66527
1.67149
1.67757
1.6835
1.68929
1.69494
1.70044
1.70579
1.71099
1.71604
1.72096
1.72574
1.73038
1.73488
1.73924
1.74346
1.74754
1.75149
1.75531
1.759
1.76256
1.76599
1.76929
1.75249
1.72629
1.71152
1.70231
1.69628
1.69228
1.68966
1.68804
1.68719
1.68684
1.68729
1.68978
)
;
    }
}


// ************************************************************************* //
