/*--------------------------------*- C++ -*----------------------------------*\
| =========                 |                                                 |
| \\      /  F ield         | OpenFOAM: The Open Source CFD Toolbox           |
|  \\    /   O peration     | Version:  2406                                  |
|   \\  /    A nd           | Website:  www.openfoam.com                      |
|    \\/     M anipulation  |                                                 |
\*---------------------------------------------------------------------------*/
FoamFile
{
    version     2.0;
    format      ascii;
    arch        "LSB;label=32;scalar=64";
    class       volTensorField;
    location    "30/fluidRegion";
    object      Kd.liquid.structure;
}
// * * * * * * * * * * * * * * * * * * * * * * * * * * * * * * * * * * * * * //

dimensions      [1 -3 -1 0 0 0 0];

internalField   nonuniform List<tensor> 
70
(
(1275.4 0 0 0 1275.4 0 0 0 1275.4)
(1360.5 0 0 0 1360.5 0 0 0 1360.5)
(1426.7 0 0 0 1426.7 0 0 0 1426.7)
(1490.09 0 0 0 1490.09 0 0 0 1490.09)
(1547.36 0 0 0 1547.36 0 0 0 1547.36)
(1601.35 0 0 0 1601.35 0 0 0 1601.35)
(1652.63 0 0 0 1652.63 0 0 0 1652.63)
(1702.01 0 0 0 1702.01 0 0 0 1702.01)
(1749.93 0 0 0 1749.93 0 0 0 1749.93)
(1796.7 0 0 0 1796.7 0 0 0 1796.7)
(1842.54 0 0 0 1842.54 0 0 0 1842.54)
(1887.59 0 0 0 1887.59 0 0 0 1887.59)
(1931.94 0 0 0 1931.94 0 0 0 1931.94)
(1975.68 0 0 0 1975.68 0 0 0 1975.68)
(2018.85 0 0 0 2018.85 0 0 0 2018.85)
(2061.5 0 0 0 2061.5 0 0 0 2061.5)
(2103.66 0 0 0 2103.66 0 0 0 2103.66)
(2145.36 0 0 0 2145.36 0 0 0 2145.36)
(2186.62 0 0 0 2186.62 0 0 0 2186.62)
(2227.48 0 0 0 2227.48 0 0 0 2227.48)
(2267.93 0 0 0 2267.93 0 0 0 2267.93)
(2308.01 0 0 0 2308.01 0 0 0 2308.01)
(2347.73 0 0 0 2347.73 0 0 0 2347.73)
(2387.11 0 0 0 2387.11 0 0 0 2387.11)
(2426.15 0 0 0 2426.15 0 0 0 2426.15)
(2464.87 0 0 0 2464.87 0 0 0 2464.87)
(2503.28 0 0 0 2503.28 0 0 0 2503.28)
(2541.4 0 0 0 2541.4 0 0 0 2541.4)
(2579.23 0 0 0 2579.23 0 0 0 2579.23)
(2616.79 0 0 0 2616.79 0 0 0 2616.79)
(2654.07 0 0 0 2654.07 0 0 0 2654.07)
(2691.1 0 0 0 2691.1 0 0 0 2691.1)
(2727.89 0 0 0 2727.89 0 0 0 2727.89)
(2764.42 0 0 0 2764.42 0 0 0 2764.42)
(2800.75 0 0 0 2800.75 0 0 0 2800.75)
(2836.89 0 0 0 2836.89 0 0 0 2836.89)
(2872.86 0 0 0 2872.86 0 0 0 2872.86)
(2908.68 0 0 0 2908.68 0 0 0 2908.68)
(2944.33 0 0 0 2944.33 0 0 0 2944.33)
(2979.84 0 0 0 2979.84 0 0 0 2979.84)
(3015.19 0 0 0 3015.19 0 0 0 3015.19)
(3050.4 0 0 0 3050.4 0 0 0 3050.4)
(3085.47 0 0 0 3085.47 0 0 0 3085.47)
(3120.4 0 0 0 3120.4 0 0 0 3120.4)
(3155.19 0 0 0 3155.19 0 0 0 3155.19)
(3189.85 0 0 0 3189.85 0 0 0 3189.85)
(3224.38 0 0 0 3224.38 0 0 0 3224.38)
(3258.78 0 0 0 3258.78 0 0 0 3258.78)
(3293.06 0 0 0 3293.06 0 0 0 3293.06)
(3327.21 0 0 0 3327.21 0 0 0 3327.21)
(3361.24 0 0 0 3361.24 0 0 0 3361.24)
(3395.15 0 0 0 3395.15 0 0 0 3395.15)
(3428.94 0 0 0 3428.94 0 0 0 3428.94)
(3462.61 0 0 0 3462.61 0 0 0 3462.61)
(3496.17 0 0 0 3496.17 0 0 0 3496.17)
(3529.62 0 0 0 3529.62 0 0 0 3529.62)
(3562.95 0 0 0 3562.95 0 0 0 3562.95)
(3596.34 0 0 0 3596.34 0 0 0 3596.34)
(3642.71 0 0 0 3642.71 0 0 0 3642.71)
(3704.71 0 0 0 3704.71 0 0 0 3704.71)
(3766.19 0 0 0 3766.19 0 0 0 3766.19)
(3827.37 0 0 0 3827.37 0 0 0 3827.37)
(3888.47 0 0 0 3888.47 0 0 0 3888.47)
(3949.61 0 0 0 3949.61 0 0 0 3949.61)
(4010.88 0 0 0 4010.88 0 0 0 4010.88)
(4072.31 0 0 0 4072.31 0 0 0 4072.31)
(4133.91 0 0 0 4133.91 0 0 0 4133.91)
(4195.96 0 0 0 4195.96 0 0 0 4195.96)
(4256.91 0 0 0 4256.91 0 0 0 4256.91)
(4326.44 0 0 0 4326.44 0 0 0 4326.44)
)
;

boundaryField
{
    inlet
    {
        type            zeroGradient;
    }
    outlet
    {
        type            zeroGradient;
    }
    fixedWalls
    {
        type            zeroGradient;
    }
}


// ************************************************************************* //
