/*--------------------------------*- C++ -*----------------------------------*\
| =========                 |                                                 |
| \\      /  F ield         | OpenFOAM: The Open Source CFD Toolbox           |
|  \\    /   O peration     | Version:  2406                                  |
|   \\  /    A nd           | Website:  www.openfoam.com                      |
|    \\/     M anipulation  |                                                 |
\*---------------------------------------------------------------------------*/
FoamFile
{
    version     2.0;
    format      ascii;
    arch        "LSB;label=32;scalar=64";
    class       volTensorField;
    location    "30/fluidRegion";
    object      KdTotU;
}
// * * * * * * * * * * * * * * * * * * * * * * * * * * * * * * * * * * * * * //

dimensions      [1 -2 -2 0 0 0 0];

internalField   nonuniform List<tensor> 
70
(
(2131.52 0 0 0 2131.52 0 0 0 2131.52)
(2256.81 0 0 0 2256.81 0 0 0 2256.81)
(2369.53 0 0 0 2369.53 0 0 0 2369.53)
(2484.8 0 0 0 2484.8 0 0 0 2484.8)
(2597.21 0 0 0 2597.21 0 0 0 2597.21)
(2708.77 0 0 0 2708.77 0 0 0 2708.77)
(2819.29 0 0 0 2819.29 0 0 0 2819.29)
(2929.16 0 0 0 2929.16 0 0 0 2929.16)
(3038.51 0 0 0 3038.51 0 0 0 3038.51)
(3147.46 0 0 0 3147.46 0 0 0 3147.46)
(3256.08 0 0 0 3256.08 0 0 0 3256.08)
(3364.42 0 0 0 3364.42 0 0 0 3364.42)
(3472.5 0 0 0 3472.5 0 0 0 3472.5)
(3580.35 0 0 0 3580.35 0 0 0 3580.35)
(3687.97 0 0 0 3687.97 0 0 0 3687.97)
(3795.36 0 0 0 3795.36 0 0 0 3795.36)
(3902.55 0 0 0 3902.55 0 0 0 3902.55)
(4009.51 0 0 0 4009.51 0 0 0 4009.51)
(4116.28 0 0 0 4116.28 0 0 0 4116.28)
(4222.84 0 0 0 4222.84 0 0 0 4222.84)
(4329.2 0 0 0 4329.2 0 0 0 4329.2)
(4435.34 0 0 0 4435.34 0 0 0 4435.34)
(4541.29 0 0 0 4541.29 0 0 0 4541.29)
(4647.03 0 0 0 4647.03 0 0 0 4647.03)
(4752.57 0 0 0 4752.57 0 0 0 4752.57)
(4857.89 0 0 0 4857.89 0 0 0 4857.89)
(4963.01 0 0 0 4963.01 0 0 0 4963.01)
(5067.91 0 0 0 5067.91 0 0 0 5067.91)
(5172.61 0 0 0 5172.61 0 0 0 5172.61)
(5277.09 0 0 0 5277.09 0 0 0 5277.09)
(5381.35 0 0 0 5381.35 0 0 0 5381.35)
(5485.4 0 0 0 5485.4 0 0 0 5485.4)
(5589.22 0 0 0 5589.22 0 0 0 5589.22)
(5692.83 0 0 0 5692.83 0 0 0 5692.83)
(5796.28 0 0 0 5796.28 0 0 0 5796.28)
(5899.62 0 0 0 5899.62 0 0 0 5899.62)
(6002.9 0 0 0 6002.9 0 0 0 6002.9)
(6106.09 0 0 0 6106.09 0 0 0 6106.09)
(6209.19 0 0 0 6209.19 0 0 0 6209.19)
(6312.2 0 0 0 6312.2 0 0 0 6312.2)
(6415.11 0 0 0 6415.11 0 0 0 6415.11)
(6517.91 0 0 0 6517.91 0 0 0 6517.91)
(6620.58 0 0 0 6620.58 0 0 0 6620.58)
(6723.12 0 0 0 6723.12 0 0 0 6723.12)
(6825.51 0 0 0 6825.51 0 0 0 6825.51)
(6927.77 0 0 0 6927.77 0 0 0 6927.77)
(7029.88 0 0 0 7029.88 0 0 0 7029.88)
(7131.82 0 0 0 7131.82 0 0 0 7131.82)
(7233.59 0 0 0 7233.59 0 0 0 7233.59)
(7335.19 0 0 0 7335.19 0 0 0 7335.19)
(7436.59 0 0 0 7436.59 0 0 0 7436.59)
(7537.8 0 0 0 7537.8 0 0 0 7537.8)
(7638.81 0 0 0 7638.81 0 0 0 7638.81)
(7739.6 0 0 0 7739.6 0 0 0 7739.6)
(7840.18 0 0 0 7840.18 0 0 0 7840.18)
(7940.54 0 0 0 7940.54 0 0 0 7940.54)
(8040.67 0 0 0 8040.67 0 0 0 8040.67)
(8140.55 0 0 0 8140.55 0 0 0 8140.55)
(8267.83 0 0 0 8267.83 0 0 0 8267.83)
(8427.81 0 0 0 8427.81 0 0 0 8427.81)
(8584.63 0 0 0 8584.63 0 0 0 8584.63)
(8739.73 0 0 0 8739.73 0 0 0 8739.73)
(8894.05 0 0 0 8894.05 0 0 0 8894.05)
(9048.09 0 0 0 9048.09 0 0 0 9048.09)
(9202.17 0 0 0 9202.17 0 0 0 9202.17)
(9356.45 0 0 0 9356.45 0 0 0 9356.45)
(9510.98 0 0 0 9510.98 0 0 0 9510.98)
(9666.6 0 0 0 9666.6 0 0 0 9666.6)
(9818.62 0 0 0 9818.62 0 0 0 9818.62)
(9995.89 0 0 0 9995.89 0 0 0 9995.89)
)
;

boundaryField
{
    inlet
    {
        type            zeroGradient;
    }
    outlet
    {
        type            zeroGradient;
    }
    fixedWalls
    {
        type            zeroGradient;
    }
}


// ************************************************************************* //
