/*--------------------------------*- C++ -*----------------------------------*\
| =========                 |                                                 |
| \\      /  F ield         | OpenFOAM: The Open Source CFD Toolbox           |
|  \\    /   O peration     | Version:  2406                                  |
|   \\  /    A nd           | Website:  www.openfoam.com                      |
|    \\/     M anipulation  |                                                 |
\*---------------------------------------------------------------------------*/
FoamFile
{
    version     2.0;
    format      ascii;
    arch        "LSB;label=32;scalar=64";
    class       volScalarField;
    location    "0.6/fluidRegion";
    object      alphaRhoMagU.vapour;
}
// * * * * * * * * * * * * * * * * * * * * * * * * * * * * * * * * * * * * * //

dimensions      [1 -2 -1 0 0 0 0];

internalField   nonuniform List<scalar> 
70
(
0
0
0
0
0
0
0
0
0
0
0
0
0
0
0.165942
0.651936
1.42843
2.46106
3.747
5.27594
7.04307
9.04777
11.2921
13.7797
16.5154
19.5042
22.7507
26.2591
30.0315
34.0798
38.6839
43.7001
48.9867
54.474
60.1275
65.9247
71.8496
77.8893
84.0334
90.2726
96.5989
103.005
109.484
116.005
122.543
129.093
135.654
142.226
148.81
155.406
162.014
168.635
175.269
181.917
188.58
195.256
201.946
208.651
215.369
222.109
228.794
235.423
242.095
248.798
255.517
262.247
268.981
275.741
282.41
289.595
)
;

boundaryField
{
    inlet
    {
        type            calculated;
        value           uniform 0;
    }
    outlet
    {
        type            calculated;
        value           uniform 289.533;
    }
    fixedWalls
    {
        type            calculated;
        value           nonuniform List<scalar> 
280
(
0
0
0
0
0
0
0
0
0
0
0
0
0
0
0.165942
0.651936
1.42843
2.46106
3.747
5.27594
7.04307
9.04777
11.2921
13.7797
16.5154
19.5042
22.7507
26.2591
30.0315
34.0798
38.6839
43.7001
48.9867
54.474
60.1275
65.9247
71.8496
77.8893
84.0334
90.2726
96.5989
103.005
109.484
116.005
122.543
129.093
135.654
142.226
148.81
155.406
162.014
168.635
175.269
181.917
188.58
195.256
201.946
208.651
215.369
222.109
228.794
235.423
242.095
248.798
255.517
262.247
268.981
275.741
282.41
289.595
0
0
0
0
0
0
0
0
0
0
0
0
0
0
0.165942
0.651936
1.42843
2.46106
3.747
5.27594
7.04307
9.04777
11.2921
13.7797
16.5154
19.5042
22.7507
26.2591
30.0315
34.0798
38.6839
43.7001
48.9867
54.474
60.1275
65.9247
71.8496
77.8893
84.0334
90.2726
96.5989
103.005
109.484
116.005
122.543
129.093
135.654
142.226
148.81
155.406
162.014
168.635
175.269
181.917
188.58
195.256
201.946
208.651
215.369
222.109
228.794
235.423
242.095
248.798
255.517
262.247
268.981
275.741
282.41
289.595
0
0
0
0
0
0
0
0
0
0
0
0
0
0
0.165942
0.651936
1.42843
2.46106
3.747
5.27594
7.04307
9.04777
11.2921
13.7797
16.5154
19.5042
22.7507
26.2591
30.0315
34.0798
38.6839
43.7001
48.9867
54.474
60.1275
65.9247
71.8496
77.8893
84.0334
90.2726
96.5989
103.005
109.484
116.005
122.543
129.093
135.654
142.226
148.81
155.406
162.014
168.635
175.269
181.917
188.58
195.256
201.946
208.651
215.369
222.109
228.794
235.423
242.095
248.798
255.517
262.247
268.981
275.741
282.41
289.595
0
0
0
0
0
0
0
0
0
0
0
0
0
0
0.165942
0.651936
1.42843
2.46106
3.747
5.27594
7.04307
9.04777
11.2921
13.7797
16.5154
19.5042
22.7507
26.2591
30.0315
34.0798
38.6839
43.7001
48.9867
54.474
60.1275
65.9247
71.8496
77.8893
84.0334
90.2726
96.5989
103.005
109.484
116.005
122.543
129.093
135.654
142.226
148.81
155.406
162.014
168.635
175.269
181.917
188.58
195.256
201.946
208.651
215.369
222.109
228.794
235.423
242.095
248.798
255.517
262.247
268.981
275.741
282.41
289.595
)
;
    }
}


// ************************************************************************* //
