/*--------------------------------*- C++ -*----------------------------------*\
| =========                 |                                                 |
| \\      /  F ield         | OpenFOAM: The Open Source CFD Toolbox           |
|  \\    /   O peration     | Version:  2406                                  |
|   \\  /    A nd           | Website:  www.openfoam.com                      |
|    \\/     M anipulation  |                                                 |
\*---------------------------------------------------------------------------*/
FoamFile
{
    version     2.0;
    format      ascii;
    arch        "LSB;label=32;scalar=64";
    class       volScalarField;
    location    "0.6/fluidRegion";
    object      dgdt.vapour;
}
// * * * * * * * * * * * * * * * * * * * * * * * * * * * * * * * * * * * * * //

dimensions      [0 0 -1 0 0 0 0];

internalField   nonuniform List<scalar> 
70
(
-4.37215e-37
-1.09302e-36
-2.7386e-36
-6.30005e-36
-1.36535e-35
-2.78357e-35
-5.42358e-35
-9.48865e-35
-1.51434e-34
-2.21456e-34
-2.89002e-34
-3.22485e-34
-2.87649e-34
-9.94869e-35
0.150367
0.422832
0.67079
0.901847
1.1198
1.33075
1.53892
1.74722
1.95768
2.17159
2.38966
2.61209
2.83861
3.0685
3.30072
3.53384
4.08024
4.40483
4.62119
4.78934
4.93014
5.05272
5.1618
5.26013
5.3495
5.43117
5.50609
5.575
5.63851
5.66887
5.67986
5.69106
5.70249
5.71413
5.72597
5.73801
5.7516
5.76568
5.78018
5.79505
5.81027
5.82581
5.84163
5.85771
5.87403
5.89054
5.90733
5.9045
5.90339
5.90739
5.91406
5.92242
5.93206
5.94251
5.95454
6.01718
)
;

boundaryField
{
    inlet
    {
        type            calculated;
        value           uniform -4.37215e-37;
    }
    outlet
    {
        type            calculated;
        value           uniform 6.01718;
    }
    fixedWalls
    {
        type            calculated;
        value           nonuniform List<scalar> 
280
(
-4.37215e-37
-1.09302e-36
-2.7386e-36
-6.30005e-36
-1.36535e-35
-2.78357e-35
-5.42358e-35
-9.48865e-35
-1.51434e-34
-2.21456e-34
-2.89002e-34
-3.22485e-34
-2.87649e-34
-9.94869e-35
0.150367
0.422832
0.67079
0.901847
1.1198
1.33075
1.53892
1.74722
1.95768
2.17159
2.38966
2.61209
2.83861
3.0685
3.30072
3.53384
4.08024
4.40483
4.62119
4.78934
4.93014
5.05272
5.1618
5.26013
5.3495
5.43117
5.50609
5.575
5.63851
5.66887
5.67986
5.69106
5.70249
5.71413
5.72597
5.73801
5.7516
5.76568
5.78018
5.79505
5.81027
5.82581
5.84163
5.85771
5.87403
5.89054
5.90733
5.9045
5.90339
5.90739
5.91406
5.92242
5.93206
5.94251
5.95454
6.01718
-4.37215e-37
-1.09302e-36
-2.7386e-36
-6.30005e-36
-1.36535e-35
-2.78357e-35
-5.42358e-35
-9.48865e-35
-1.51434e-34
-2.21456e-34
-2.89002e-34
-3.22485e-34
-2.87649e-34
-9.94869e-35
0.150367
0.422832
0.67079
0.901847
1.1198
1.33075
1.53892
1.74722
1.95768
2.17159
2.38966
2.61209
2.83861
3.0685
3.30072
3.53384
4.08024
4.40483
4.62119
4.78934
4.93014
5.05272
5.1618
5.26013
5.3495
5.43117
5.50609
5.575
5.63851
5.66887
5.67986
5.69106
5.70249
5.71413
5.72597
5.73801
5.7516
5.76568
5.78018
5.79505
5.81027
5.82581
5.84163
5.85771
5.87403
5.89054
5.90733
5.9045
5.90339
5.90739
5.91406
5.92242
5.93206
5.94251
5.95454
6.01718
-4.37215e-37
-1.09302e-36
-2.7386e-36
-6.30005e-36
-1.36535e-35
-2.78357e-35
-5.42358e-35
-9.48865e-35
-1.51434e-34
-2.21456e-34
-2.89002e-34
-3.22485e-34
-2.87649e-34
-9.94869e-35
0.150367
0.422832
0.67079
0.901847
1.1198
1.33075
1.53892
1.74722
1.95768
2.17159
2.38966
2.61209
2.83861
3.0685
3.30072
3.53384
4.08024
4.40483
4.62119
4.78934
4.93014
5.05272
5.1618
5.26013
5.3495
5.43117
5.50609
5.575
5.63851
5.66887
5.67986
5.69106
5.70249
5.71413
5.72597
5.73801
5.7516
5.76568
5.78018
5.79505
5.81027
5.82581
5.84163
5.85771
5.87403
5.89054
5.90733
5.9045
5.90339
5.90739
5.91406
5.92242
5.93206
5.94251
5.95454
6.01718
-4.37215e-37
-1.09302e-36
-2.7386e-36
-6.30005e-36
-1.36535e-35
-2.78357e-35
-5.42358e-35
-9.48865e-35
-1.51434e-34
-2.21456e-34
-2.89002e-34
-3.22485e-34
-2.87649e-34
-9.94869e-35
0.150367
0.422832
0.67079
0.901847
1.1198
1.33075
1.53892
1.74722
1.95768
2.17159
2.38966
2.61209
2.83861
3.0685
3.30072
3.53384
4.08024
4.40483
4.62119
4.78934
4.93014
5.05272
5.1618
5.26013
5.3495
5.43117
5.50609
5.575
5.63851
5.66887
5.67986
5.69106
5.70249
5.71413
5.72597
5.73801
5.7516
5.76568
5.78018
5.79505
5.81027
5.82581
5.84163
5.85771
5.87403
5.89054
5.90733
5.9045
5.90339
5.90739
5.91406
5.92242
5.93206
5.94251
5.95454
6.01718
)
;
    }
}


// ************************************************************************* //
