/*--------------------------------*- C++ -*----------------------------------*\
| =========                 |                                                 |
| \\      /  F ield         | OpenFOAM: The Open Source CFD Toolbox           |
|  \\    /   O peration     | Version:  2406                                  |
|   \\  /    A nd           | Website:  www.openfoam.com                      |
|    \\/     M anipulation  |                                                 |
\*---------------------------------------------------------------------------*/
FoamFile
{
    version     2.0;
    format      ascii;
    arch        "LSB;label=32;scalar=64";
    class       volTensorField;
    location    "0.6/fluidRegion";
    object      Kd.liquid.structure;
}
// * * * * * * * * * * * * * * * * * * * * * * * * * * * * * * * * * * * * * //

dimensions      [1 -3 -1 0 0 0 0];

internalField   nonuniform List<tensor> 
70
(
(1133.35 0 0 0 1133.35 0 0 0 1133.35)
(1132 0 0 0 1132 0 0 0 1132)
(1130.66 0 0 0 1130.66 0 0 0 1130.66)
(1129.31 0 0 0 1129.31 0 0 0 1129.31)
(1127.95 0 0 0 1127.95 0 0 0 1127.95)
(1126.59 0 0 0 1126.59 0 0 0 1126.59)
(1125.23 0 0 0 1125.23 0 0 0 1125.23)
(1123.85 0 0 0 1123.85 0 0 0 1123.85)
(1122.48 0 0 0 1122.48 0 0 0 1122.48)
(1121.09 0 0 0 1121.09 0 0 0 1121.09)
(1119.71 0 0 0 1119.71 0 0 0 1119.71)
(1118.31 0 0 0 1118.31 0 0 0 1118.31)
(1116.91 0 0 0 1116.91 0 0 0 1116.91)
(1115.51 0 0 0 1115.51 0 0 0 1115.51)
(1138.5 0 0 0 1138.5 0 0 0 1138.5)
(1195.84 0 0 0 1195.84 0 0 0 1195.84)
(1278.5 0 0 0 1278.5 0 0 0 1278.5)
(1380.26 0 0 0 1380.26 0 0 0 1380.26)
(1499.16 0 0 0 1499.16 0 0 0 1499.16)
(1632.59 0 0 0 1632.59 0 0 0 1632.59)
(1778.75 0 0 0 1778.75 0 0 0 1778.75)
(1936.29 0 0 0 1936.29 0 0 0 1936.29)
(2104.18 0 0 0 2104.18 0 0 0 2104.18)
(2281.52 0 0 0 2281.52 0 0 0 2281.52)
(2467.57 0 0 0 2467.57 0 0 0 2467.57)
(2661.58 0 0 0 2661.58 0 0 0 2661.58)
(2862.88 0 0 0 2862.88 0 0 0 2862.88)
(3070.76 0 0 0 3070.76 0 0 0 3070.76)
(3284.49 0 0 0 3284.49 0 0 0 3284.49)
(3503.64 0 0 0 3503.64 0 0 0 3503.64)
(3741.68 0 0 0 3741.68 0 0 0 3741.68)
(3990.39 0 0 0 3990.39 0 0 0 3990.39)
(4241.08 0 0 0 4241.08 0 0 0 4241.08)
(4489.95 0 0 0 4489.95 0 0 0 4489.95)
(4735.57 0 0 0 4735.57 0 0 0 4735.57)
(4977.27 0 0 0 4977.27 0 0 0 4977.27)
(5214.76 0 0 0 5214.76 0 0 0 5214.76)
(5447.95 0 0 0 5447.95 0 0 0 5447.95)
(5676.84 0 0 0 5676.84 0 0 0 5676.84)
(5901.51 0 0 0 5901.51 0 0 0 5901.51)
(6122.06 0 0 0 6122.06 0 0 0 6122.06)
(6338.61 0 0 0 6338.61 0 0 0 6338.61)
(6551.31 0 0 0 6551.31 0 0 0 6551.31)
(6759.61 0 0 0 6759.61 0 0 0 6759.61)
(6963.03 0 0 0 6963.03 0 0 0 6963.03)
(7161.69 0 0 0 7161.69 0 0 0 7161.69)
(7355.96 0 0 0 7355.96 0 0 0 7355.96)
(7546.15 0 0 0 7546.15 0 0 0 7546.15)
(7732.56 0 0 0 7732.56 0 0 0 7732.56)
(7915.45 0 0 0 7915.45 0 0 0 7915.45)
(8095.07 0 0 0 8095.07 0 0 0 8095.07)
(8271.68 0 0 0 8271.68 0 0 0 8271.68)
(8445.47 0 0 0 8445.47 0 0 0 8445.47)
(8616.64 0 0 0 8616.64 0 0 0 8616.64)
(8785.36 0 0 0 8785.36 0 0 0 8785.36)
(8951.78 0 0 0 8951.78 0 0 0 8951.78)
(9116.05 0 0 0 9116.05 0 0 0 9116.05)
(9278.31 0 0 0 9278.31 0 0 0 9278.31)
(9438.71 0 0 0 9438.71 0 0 0 9438.71)
(9597.12 0 0 0 9597.12 0 0 0 9597.12)
(9756.16 0 0 0 9756.16 0 0 0 9756.16)
(10037.6 0 0 0 10037.6 0 0 0 10037.6)
(10370 0 0 0 10370 0 0 0 10370)
(10705.5 0 0 0 10705.5 0 0 0 10705.5)
(11044.4 0 0 0 11044.4 0 0 0 11044.4)
(11387.1 0 0 0 11387.1 0 0 0 11387.1)
(11733.2 0 0 0 11733.2 0 0 0 11733.2)
(12085.7 0 0 0 12085.7 0 0 0 12085.7)
(12430.9 0 0 0 12430.9 0 0 0 12430.9)
(12838.9 0 0 0 12838.9 0 0 0 12838.9)
)
;

boundaryField
{
    inlet
    {
        type            zeroGradient;
    }
    outlet
    {
        type            zeroGradient;
    }
    fixedWalls
    {
        type            zeroGradient;
    }
}


// ************************************************************************* //
