/*--------------------------------*- C++ -*----------------------------------*\
| =========                 |                                                 |
| \\      /  F ield         | OpenFOAM: The Open Source CFD Toolbox           |
|  \\    /   O peration     | Version:  2406                                  |
|   \\  /    A nd           | Website:  www.openfoam.com                      |
|    \\/     M anipulation  |                                                 |
\*---------------------------------------------------------------------------*/
FoamFile
{
    version     2.0;
    format      ascii;
    arch        "LSB;label=32;scalar=64";
    class       volTensorField;
    location    "0.6/fluidRegion";
    object      KdTotU;
}
// * * * * * * * * * * * * * * * * * * * * * * * * * * * * * * * * * * * * * //

dimensions      [1 -2 -2 0 0 0 0];

internalField   nonuniform List<tensor> 
70
(
(5071.98 0 0 0 5071.98 0 0 0 5071.98)
(5084.52 0 0 0 5084.52 0 0 0 5084.52)
(5097.24 0 0 0 5097.24 0 0 0 5097.24)
(5110.14 0 0 0 5110.14 0 0 0 5110.14)
(5123.2 0 0 0 5123.2 0 0 0 5123.2)
(5136.42 0 0 0 5136.42 0 0 0 5136.42)
(5149.8 0 0 0 5149.8 0 0 0 5149.8)
(5163.33 0 0 0 5163.33 0 0 0 5163.33)
(5176.99 0 0 0 5176.99 0 0 0 5176.99)
(5190.8 0 0 0 5190.8 0 0 0 5190.8)
(5204.73 0 0 0 5204.73 0 0 0 5204.73)
(5218.79 0 0 0 5218.79 0 0 0 5218.79)
(5232.96 0 0 0 5232.96 0 0 0 5232.96)
(5247.25 0 0 0 5247.25 0 0 0 5247.25)
(5380.17 0 0 0 5380.17 0 0 0 5380.17)
(5686.38 0 0 0 5686.38 0 0 0 5686.38)
(6128.38 0 0 0 6128.38 0 0 0 6128.38)
(6679.19 0 0 0 6679.19 0 0 0 6679.19)
(7332.23 0 0 0 7332.23 0 0 0 7332.23)
(8078.54 0 0 0 8078.54 0 0 0 8078.54)
(8912.91 0 0 0 8912.91 0 0 0 8912.91)
(9832.54 0 0 0 9832.54 0 0 0 9832.54)
(10836 0 0 0 10836 0 0 0 10836)
(11922.5 0 0 0 11922.5 0 0 0 11922.5)
(13091.8 0 0 0 13091.8 0 0 0 13091.8)
(14343.8 0 0 0 14343.8 0 0 0 14343.8)
(15678 0 0 0 15678 0 0 0 15678)
(17093.7 0 0 0 17093.7 0 0 0 17093.7)
(18589.6 0 0 0 18589.6 0 0 0 18589.6)
(20166.7 0 0 0 20166.7 0 0 0 20166.7)
(21916.4 0 0 0 21916.4 0 0 0 21916.4)
(23798.7 0 0 0 23798.7 0 0 0 23798.7)
(25752.9 0 0 0 25752.9 0 0 0 25752.9)
(27749.9 0 0 0 27749.9 0 0 0 27749.9)
(29775.9 0 0 0 29775.9 0 0 0 29775.9)
(31822.1 0 0 0 31822.1 0 0 0 31822.1)
(33882.5 0 0 0 33882.5 0 0 0 33882.5)
(35952.6 0 0 0 35952.6 0 0 0 35952.6)
(38028.5 0 0 0 38028.5 0 0 0 38028.5)
(40107.1 0 0 0 40107.1 0 0 0 40107.1)
(42185.6 0 0 0 42185.6 0 0 0 42185.6)
(44261.8 0 0 0 44261.8 0 0 0 44261.8)
(46333.4 0 0 0 46333.4 0 0 0 46333.4)
(48392.3 0 0 0 48392.3 0 0 0 48392.3)
(50430.5 0 0 0 50430.5 0 0 0 50430.5)
(52446.3 0 0 0 52446.3 0 0 0 52446.3)
(54440.1 0 0 0 54440.1 0 0 0 54440.1)
(56412.5 0 0 0 56412.5 0 0 0 56412.5)
(58363.8 0 0 0 58363.8 0 0 0 58363.8)
(60294.5 0 0 0 60294.5 0 0 0 60294.5)
(62205.1 0 0 0 62205.1 0 0 0 62205.1)
(64096.3 0 0 0 64096.3 0 0 0 64096.3)
(65968.3 0 0 0 65968.3 0 0 0 65968.3)
(67821.5 0 0 0 67821.5 0 0 0 67821.5)
(69656.1 0 0 0 69656.1 0 0 0 69656.1)
(71472.4 0 0 0 71472.4 0 0 0 71472.4)
(73270.6 0 0 0 73270.6 0 0 0 73270.6)
(75050.8 0 0 0 75050.8 0 0 0 75050.8)
(76813.2 0 0 0 76813.2 0 0 0 76813.2)
(78558 0 0 0 78558 0 0 0 78558)
(80284.3 0 0 0 80284.3 0 0 0 80284.3)
(82952.2 0 0 0 82952.2 0 0 0 82952.2)
(85973 0 0 0 85973 0 0 0 85973)
(88977.6 0 0 0 88977.6 0 0 0 88977.6)
(91982.4 0 0 0 91982.4 0 0 0 91982.4)
(94998 0 0 0 94998 0 0 0 94998)
(98023.4 0 0 0 98023.4 0 0 0 98023.4)
(101089 0 0 0 101089 0 0 0 101089)
(104051 0 0 0 104051 0 0 0 104051)
(107653 0 0 0 107653 0 0 0 107653)
)
;

boundaryField
{
    inlet
    {
        type            zeroGradient;
    }
    outlet
    {
        type            zeroGradient;
    }
    fixedWalls
    {
        type            zeroGradient;
    }
}


// ************************************************************************* //
