/*--------------------------------*- C++ -*----------------------------------*\
| =========                 |                                                 |
| \\      /  F ield         | OpenFOAM: The Open Source CFD Toolbox           |
|  \\    /   O peration     | Version:  2406                                  |
|   \\  /    A nd           | Website:  www.openfoam.com                      |
|    \\/     M anipulation  |                                                 |
\*---------------------------------------------------------------------------*/
FoamFile
{
    version     2.0;
    format      ascii;
    arch        "LSB;label=32;scalar=64";
    class       volScalarField;
    location    "0.6/fluidRegion";
    object      alphaRhoMagU.vapour;
}
// * * * * * * * * * * * * * * * * * * * * * * * * * * * * * * * * * * * * * //

dimensions      [1 -2 -1 0 0 0 0];

internalField   nonuniform List<scalar> 
70
(
0
0
0
0.650173
2.49337
5.33167
8.91738
12.816
16.7366
20.6872
25.051
30.4815
36.4376
42.5009
48.5461
54.5284
60.4257
66.2276
71.9256
77.513
82.9843
88.334
93.526
98.5187
103.308
107.9
112.304
116.53
120.587
124.484
128.228
131.827
135.286
138.611
141.808
144.881
147.835
150.675
153.405
156.028
158.549
160.97
163.295
165.527
167.668
169.723
171.692
173.58
175.387
177.117
178.76
180.301
181.75
183.113
184.394
185.598
186.728
187.787
188.777
189.701
190.56
191.356
192.089
192.76
193.367
193.904
194.361
194.714
194.979
195.265
)
;

boundaryField
{
    inlet
    {
        type            calculated;
        value           uniform 0;
    }
    outlet
    {
        type            calculated;
        value           uniform 195.217;
    }
    fixedWalls
    {
        type            calculated;
        value           nonuniform List<scalar> 
280
(
0
0
0
0.650173
2.49337
5.33167
8.91738
12.816
16.7366
20.6872
25.051
30.4815
36.4376
42.5009
48.5461
54.5284
60.4257
66.2276
71.9256
77.513
82.9843
88.334
93.526
98.5187
103.308
107.9
112.304
116.53
120.587
124.484
128.228
131.827
135.286
138.611
141.808
144.881
147.835
150.675
153.405
156.028
158.549
160.97
163.295
165.527
167.668
169.723
171.692
173.58
175.387
177.117
178.76
180.301
181.75
183.113
184.394
185.598
186.728
187.787
188.777
189.701
190.56
191.356
192.089
192.76
193.367
193.904
194.361
194.714
194.979
195.265
0
0
0
0.650173
2.49337
5.33167
8.91738
12.816
16.7366
20.6872
25.051
30.4815
36.4376
42.5009
48.5461
54.5284
60.4257
66.2276
71.9256
77.513
82.9843
88.334
93.526
98.5187
103.308
107.9
112.304
116.53
120.587
124.484
128.228
131.827
135.286
138.611
141.808
144.881
147.835
150.675
153.405
156.028
158.549
160.97
163.295
165.527
167.668
169.723
171.692
173.58
175.387
177.117
178.76
180.301
181.75
183.113
184.394
185.598
186.728
187.787
188.777
189.701
190.56
191.356
192.089
192.76
193.367
193.904
194.361
194.714
194.979
195.265
0
0
0
0.650173
2.49337
5.33167
8.91738
12.816
16.7366
20.6872
25.051
30.4815
36.4376
42.5009
48.5461
54.5284
60.4257
66.2276
71.9256
77.513
82.9843
88.334
93.526
98.5187
103.308
107.9
112.304
116.53
120.587
124.484
128.228
131.827
135.286
138.611
141.808
144.881
147.835
150.675
153.405
156.028
158.549
160.97
163.295
165.527
167.668
169.723
171.692
173.58
175.387
177.117
178.76
180.301
181.75
183.113
184.394
185.598
186.728
187.787
188.777
189.701
190.56
191.356
192.089
192.76
193.367
193.904
194.361
194.714
194.979
195.265
0
0
0
0.650173
2.49337
5.33167
8.91738
12.816
16.7366
20.6872
25.051
30.4815
36.4376
42.5009
48.5461
54.5284
60.4257
66.2276
71.9256
77.513
82.9843
88.334
93.526
98.5187
103.308
107.9
112.304
116.53
120.587
124.484
128.228
131.827
135.286
138.611
141.808
144.881
147.835
150.675
153.405
156.028
158.549
160.97
163.295
165.527
167.668
169.723
171.692
173.58
175.387
177.117
178.76
180.301
181.75
183.113
184.394
185.598
186.728
187.787
188.777
189.701
190.56
191.356
192.089
192.76
193.367
193.904
194.361
194.714
194.979
195.265
)
;
    }
}


// ************************************************************************* //
