/*--------------------------------*- C++ -*----------------------------------*\
| =========                 |                                                 |
| \\      /  F ield         | OpenFOAM: The Open Source CFD Toolbox           |
|  \\    /   O peration     | Version:  2406                                  |
|   \\  /    A nd           | Website:  www.openfoam.com                      |
|    \\/     M anipulation  |                                                 |
\*---------------------------------------------------------------------------*/
FoamFile
{
    version     2.0;
    format      ascii;
    arch        "LSB;label=32;scalar=64";
    class       volScalarField;
    location    "0.6/fluidRegion";
    object      dgdt.vapour;
}
// * * * * * * * * * * * * * * * * * * * * * * * * * * * * * * * * * * * * * //

dimensions      [0 0 -1 0 0 0 0];

internalField   nonuniform List<scalar> 
70
(
-0
-0
-0
1.13847
3.121
4.68812
5.88319
6.27994
6.25646
6.32532
7.12682
9.21124
9.65528
9.74881
9.70998
9.59886
9.46079
9.30466
9.13508
8.95508
8.76693
8.57252
8.29921
7.96139
7.64189
7.32957
7.03516
6.75674
6.4926
6.24312
6.00526
5.77804
5.56064
5.35233
5.15247
4.96047
4.77582
4.59804
4.4267
4.26139
4.10177
3.94749
3.79824
3.65373
3.51369
3.37787
3.24604
3.11799
2.99349
2.87234
2.75435
2.58798
2.43261
2.29291
2.16342
2.04135
1.92503
1.81338
1.70561
1.60109
1.49924
1.39937
1.30053
1.20106
1.09785
0.984584
0.848343
0.667302
0.541223
0.614808
)
;

boundaryField
{
    inlet
    {
        type            calculated;
        value           uniform -0;
    }
    outlet
    {
        type            calculated;
        value           uniform 0.614808;
    }
    fixedWalls
    {
        type            calculated;
        value           nonuniform List<scalar> 
280
(
-0
-0
-0
1.13847
3.121
4.68812
5.88319
6.27994
6.25646
6.32532
7.12682
9.21124
9.65528
9.74881
9.70998
9.59886
9.46079
9.30466
9.13508
8.95508
8.76693
8.57252
8.29921
7.96139
7.64189
7.32957
7.03516
6.75674
6.4926
6.24312
6.00526
5.77804
5.56064
5.35233
5.15247
4.96047
4.77582
4.59804
4.4267
4.26139
4.10177
3.94749
3.79824
3.65373
3.51369
3.37787
3.24604
3.11799
2.99349
2.87234
2.75435
2.58798
2.43261
2.29291
2.16342
2.04135
1.92503
1.81338
1.70561
1.60109
1.49924
1.39937
1.30053
1.20106
1.09785
0.984584
0.848343
0.667302
0.541223
0.614808
-0
-0
-0
1.13847
3.121
4.68812
5.88319
6.27994
6.25646
6.32532
7.12682
9.21124
9.65528
9.74881
9.70998
9.59886
9.46079
9.30466
9.13508
8.95508
8.76693
8.57252
8.29921
7.96139
7.64189
7.32957
7.03516
6.75674
6.4926
6.24312
6.00526
5.77804
5.56064
5.35233
5.15247
4.96047
4.77582
4.59804
4.4267
4.26139
4.10177
3.94749
3.79824
3.65373
3.51369
3.37787
3.24604
3.11799
2.99349
2.87234
2.75435
2.58798
2.43261
2.29291
2.16342
2.04135
1.92503
1.81338
1.70561
1.60109
1.49924
1.39937
1.30053
1.20106
1.09785
0.984584
0.848343
0.667302
0.541223
0.614808
-0
-0
-0
1.13847
3.121
4.68812
5.88319
6.27994
6.25646
6.32532
7.12682
9.21124
9.65528
9.74881
9.70998
9.59886
9.46079
9.30466
9.13508
8.95508
8.76693
8.57252
8.29921
7.96139
7.64189
7.32957
7.03516
6.75674
6.4926
6.24312
6.00526
5.77804
5.56064
5.35233
5.15247
4.96047
4.77582
4.59804
4.4267
4.26139
4.10177
3.94749
3.79824
3.65373
3.51369
3.37787
3.24604
3.11799
2.99349
2.87234
2.75435
2.58798
2.43261
2.29291
2.16342
2.04135
1.92503
1.81338
1.70561
1.60109
1.49924
1.39937
1.30053
1.20106
1.09785
0.984584
0.848343
0.667302
0.541223
0.614808
-0
-0
-0
1.13847
3.121
4.68812
5.88319
6.27994
6.25646
6.32532
7.12682
9.21124
9.65528
9.74881
9.70998
9.59886
9.46079
9.30466
9.13508
8.95508
8.76693
8.57252
8.29921
7.96139
7.64189
7.32957
7.03516
6.75674
6.4926
6.24312
6.00526
5.77804
5.56064
5.35233
5.15247
4.96047
4.77582
4.59804
4.4267
4.26139
4.10177
3.94749
3.79824
3.65373
3.51369
3.37787
3.24604
3.11799
2.99349
2.87234
2.75435
2.58798
2.43261
2.29291
2.16342
2.04135
1.92503
1.81338
1.70561
1.60109
1.49924
1.39937
1.30053
1.20106
1.09785
0.984584
0.848343
0.667302
0.541223
0.614808
)
;
    }
}


// ************************************************************************* //
