/*--------------------------------*- C++ -*----------------------------------*\
| =========                 |                                                 |
| \\      /  F ield         | OpenFOAM: The Open Source CFD Toolbox           |
|  \\    /   O peration     | Version:  2406                                  |
|   \\  /    A nd           | Website:  www.openfoam.com                      |
|    \\/     M anipulation  |                                                 |
\*---------------------------------------------------------------------------*/
FoamFile
{
    version     2.0;
    format      ascii;
    arch        "LSB;label=32;scalar=64";
    class       volTensorField;
    location    "0.6/fluidRegion";
    object      Kd.liquid.structure;
}
// * * * * * * * * * * * * * * * * * * * * * * * * * * * * * * * * * * * * * //

dimensions      [1 -3 -1 0 0 0 0];

internalField   nonuniform List<tensor> 
70
(
(1061 0 0 0 1061 0 0 0 1061)
(1059.6 0 0 0 1059.6 0 0 0 1059.6)
(1057.74 0 0 0 1057.74 0 0 0 1057.74)
(1139.22 0 0 0 1139.22 0 0 0 1139.22)
(1332.38 0 0 0 1332.38 0 0 0 1332.38)
(1595.94 0 0 0 1595.94 0 0 0 1595.94)
(1894.89 0 0 0 1894.89 0 0 0 1894.89)
(2190.89 0 0 0 2190.89 0 0 0 2190.89)
(2464.08 0 0 0 2464.08 0 0 0 2464.08)
(2718.18 0 0 0 2718.18 0 0 0 2718.18)
(2978.23 0 0 0 2978.23 0 0 0 2978.23)
(3281.35 0 0 0 3281.35 0 0 0 3281.35)
(3596 0 0 0 3596 0 0 0 3596)
(3895.25 0 0 0 3895.25 0 0 0 3895.25)
(4175.25 0 0 0 4175.25 0 0 0 4175.25)
(4437.06 0 0 0 4437.06 0 0 0 4437.06)
(4682.42 0 0 0 4682.42 0 0 0 4682.42)
(4913.21 0 0 0 4913.21 0 0 0 4913.21)
(5131.01 0 0 0 5131.01 0 0 0 5131.01)
(5337.13 0 0 0 5337.13 0 0 0 5337.13)
(5532.64 0 0 0 5532.64 0 0 0 5532.64)
(5718.5 0 0 0 5718.5 0 0 0 5718.5)
(5894.53 0 0 0 5894.53 0 0 0 5894.53)
(6060.06 0 0 0 6060.06 0 0 0 6060.06)
(6215.53 0 0 0 6215.53 0 0 0 6215.53)
(6361.88 0 0 0 6361.88 0 0 0 6361.88)
(6499.94 0 0 0 6499.94 0 0 0 6499.94)
(6630.49 0 0 0 6630.49 0 0 0 6630.49)
(6754.18 0 0 0 6754.18 0 0 0 6754.18)
(6871.59 0 0 0 6871.59 0 0 0 6871.59)
(6983.22 0 0 0 6983.22 0 0 0 6983.22)
(7089.48 0 0 0 7089.48 0 0 0 7089.48)
(7190.74 0 0 0 7190.74 0 0 0 7190.74)
(7287.31 0 0 0 7287.31 0 0 0 7287.31)
(7379.5 0 0 0 7379.5 0 0 0 7379.5)
(7467.56 0 0 0 7467.56 0 0 0 7467.56)
(7551.72 0 0 0 7551.72 0 0 0 7551.72)
(7632.2 0 0 0 7632.2 0 0 0 7632.2)
(7709.19 0 0 0 7709.19 0 0 0 7709.19)
(7782.88 0 0 0 7782.88 0 0 0 7782.88)
(7853.41 0 0 0 7853.41 0 0 0 7853.41)
(7920.94 0 0 0 7920.94 0 0 0 7920.94)
(7985.6 0 0 0 7985.6 0 0 0 7985.6)
(8047.53 0 0 0 8047.53 0 0 0 8047.53)
(8106.84 0 0 0 8106.84 0 0 0 8106.84)
(8163.64 0 0 0 8163.64 0 0 0 8163.64)
(8218.02 0 0 0 8218.02 0 0 0 8218.02)
(8270.09 0 0 0 8270.09 0 0 0 8270.09)
(8319.92 0 0 0 8319.92 0 0 0 8319.92)
(8367.57 0 0 0 8367.57 0 0 0 8367.57)
(8413.61 0 0 0 8413.61 0 0 0 8413.61)
(8490.18 0 0 0 8490.18 0 0 0 8490.18)
(8568.59 0 0 0 8568.59 0 0 0 8568.59)
(8642.12 0 0 0 8642.12 0 0 0 8642.12)
(8711.29 0 0 0 8711.29 0 0 0 8711.29)
(8776.42 0 0 0 8776.42 0 0 0 8776.42)
(8837.73 0 0 0 8837.73 0 0 0 8837.73)
(8895.42 0 0 0 8895.42 0 0 0 8895.42)
(8949.61 0 0 0 8949.61 0 0 0 8949.61)
(9000.42 0 0 0 9000.42 0 0 0 9000.42)
(9047.93 0 0 0 9047.93 0 0 0 9047.93)
(9092.22 0 0 0 9092.22 0 0 0 9092.22)
(9133.3 0 0 0 9133.3 0 0 0 9133.3)
(9171.16 0 0 0 9171.16 0 0 0 9171.16)
(9205.66 0 0 0 9205.66 0 0 0 9205.66)
(9236.46 0 0 0 9236.46 0 0 0 9236.46)
(9262.78 0 0 0 9262.78 0 0 0 9262.78)
(9283.36 0 0 0 9283.36 0 0 0 9283.36)
(9299.68 0 0 0 9299.68 0 0 0 9299.68)
(9319.69 0 0 0 9319.69 0 0 0 9319.69)
)
;

boundaryField
{
    inlet
    {
        type            zeroGradient;
    }
    outlet
    {
        type            zeroGradient;
    }
    fixedWalls
    {
        type            zeroGradient;
    }
}


// ************************************************************************* //
