/*--------------------------------*- C++ -*----------------------------------*\
| =========                 |                                                 |
| \\      /  F ield         | OpenFOAM: The Open Source CFD Toolbox           |
|  \\    /   O peration     | Version:  2406                                  |
|   \\  /    A nd           | Website:  www.openfoam.com                      |
|    \\/     M anipulation  |                                                 |
\*---------------------------------------------------------------------------*/
FoamFile
{
    version     2.0;
    format      ascii;
    arch        "LSB;label=32;scalar=64";
    class       volTensorField;
    location    "0.6/fluidRegion";
    object      KdTotU;
}
// * * * * * * * * * * * * * * * * * * * * * * * * * * * * * * * * * * * * * //

dimensions      [1 -2 -2 0 0 0 0];

internalField   nonuniform List<tensor> 
70
(
(4733.99 0 0 0 4733.99 0 0 0 4733.99)
(4730.55 0 0 0 4730.55 0 0 0 4730.55)
(4726.78 0 0 0 4726.78 0 0 0 4726.78)
(5119.71 0 0 0 5119.71 0 0 0 5119.71)
(6081.49 0 0 0 6081.49 0 0 0 6081.49)
(7459.55 0 0 0 7459.55 0 0 0 7459.55)
(9108.34 0 0 0 9108.34 0 0 0 9108.34)
(10842 0 0 0 10842 0 0 0 10842)
(12538.9 0 0 0 12538.9 0 0 0 12538.9)
(14202.9 0 0 0 14202.9 0 0 0 14202.9)
(15980.2 0 0 0 15980.2 0 0 0 15980.2)
(18120.5 0 0 0 18120.5 0 0 0 18120.5)
(20459.6 0 0 0 20459.6 0 0 0 20459.6)
(22803.1 0 0 0 22803.1 0 0 0 22803.1)
(25104.7 0 0 0 25104.7 0 0 0 25104.7)
(27350.3 0 0 0 27350.3 0 0 0 27350.3)
(29534.8 0 0 0 29534.8 0 0 0 29534.8)
(31657.7 0 0 0 31657.7 0 0 0 31657.7)
(33718.9 0 0 0 33718.9 0 0 0 33718.9)
(35718.6 0 0 0 35718.6 0 0 0 35718.6)
(37657.3 0 0 0 37657.3 0 0 0 37657.3)
(39535.4 0 0 0 39535.4 0 0 0 39535.4)
(41344.6 0 0 0 41344.6 0 0 0 41344.6)
(43072.3 0 0 0 43072.3 0 0 0 43072.3)
(44717 0 0 0 44717 0 0 0 44717)
(46283.2 0 0 0 46283.2 0 0 0 46283.2)
(47775.3 0 0 0 47775.3 0 0 0 47775.3)
(49198.3 0 0 0 49198.3 0 0 0 49198.3)
(50556.4 0 0 0 50556.4 0 0 0 50556.4)
(51854 0 0 0 51854 0 0 0 51854)
(53094.5 0 0 0 53094.5 0 0 0 53094.5)
(54281.1 0 0 0 54281.1 0 0 0 54281.1)
(55416.6 0 0 0 55416.6 0 0 0 55416.6)
(56503.8 0 0 0 56503.8 0 0 0 56503.8)
(57545 0 0 0 57545 0 0 0 57545)
(58542.4 0 0 0 58542.4 0 0 0 58542.4)
(59498 0 0 0 59498 0 0 0 59498)
(60413.8 0 0 0 60413.8 0 0 0 60413.8)
(61291.6 0 0 0 61291.6 0 0 0 61291.6)
(62132.9 0 0 0 62132.9 0 0 0 62132.9)
(62939.4 0 0 0 62939.4 0 0 0 62939.4)
(63712.4 0 0 0 63712.4 0 0 0 63712.4)
(64453.2 0 0 0 64453.2 0 0 0 64453.2)
(65163.1 0 0 0 65163.1 0 0 0 65163.1)
(65843.3 0 0 0 65843.3 0 0 0 65843.3)
(66494.9 0 0 0 66494.9 0 0 0 66494.9)
(67118.9 0 0 0 67118.9 0 0 0 67118.9)
(67716.2 0 0 0 67716.2 0 0 0 67716.2)
(68287.8 0 0 0 68287.8 0 0 0 68287.8)
(68834.5 0 0 0 68834.5 0 0 0 68834.5)
(69357.2 0 0 0 69357.2 0 0 0 69357.2)
(70112.8 0 0 0 70112.8 0 0 0 70112.8)
(70865.3 0 0 0 70865.3 0 0 0 70865.3)
(71565 0 0 0 71565 0 0 0 71565)
(72219.4 0 0 0 72219.4 0 0 0 72219.4)
(72833.2 0 0 0 72833.2 0 0 0 72833.2)
(73409.5 0 0 0 73409.5 0 0 0 73409.5)
(73950.7 0 0 0 73950.7 0 0 0 73950.7)
(74458.3 0 0 0 74458.3 0 0 0 74458.3)
(74933.5 0 0 0 74933.5 0 0 0 74933.5)
(75377.2 0 0 0 75377.2 0 0 0 75377.2)
(75790.2 0 0 0 75790.2 0 0 0 75790.2)
(76172.7 0 0 0 76172.7 0 0 0 76172.7)
(76524.4 0 0 0 76524.4 0 0 0 76524.4)
(76844.1 0 0 0 76844.1 0 0 0 76844.1)
(77128.7 0 0 0 77128.7 0 0 0 77128.7)
(77370.6 0 0 0 77370.6 0 0 0 77370.6)
(77557.6 0 0 0 77557.6 0 0 0 77557.6)
(77701.5 0 0 0 77701.5 0 0 0 77701.5)
(77882.8 0 0 0 77882.8 0 0 0 77882.8)
)
;

boundaryField
{
    inlet
    {
        type            zeroGradient;
    }
    outlet
    {
        type            zeroGradient;
    }
    fixedWalls
    {
        type            zeroGradient;
    }
}


// ************************************************************************* //
