/*--------------------------------*- C++ -*----------------------------------*\
| =========                 |                                                 |
| \\      /  F ield         | OpenFOAM: The Open Source CFD Toolbox           |
|  \\    /   O peration     | Version:  2406                                  |
|   \\  /    A nd           | Website:  www.openfoam.com                      |
|    \\/     M anipulation  |                                                 |
\*---------------------------------------------------------------------------*/
FoamFile
{
    version     2.0;
    format      ascii;
    arch        "LSB;label=32;scalar=64";
    class       volScalarField;
    location    "0.6/fluidRegion";
    object      p;
}
// * * * * * * * * * * * * * * * * * * * * * * * * * * * * * * * * * * * * * //

dimensions      [1 -1 -2 0 0 0 0];

internalField   nonuniform List<scalar> 
70
(
7.36462e+06
7.36425e+06
7.36386e+06
7.36346e+06
7.36293e+06
7.36219e+06
7.36125e+06
7.36016e+06
7.35898e+06
7.35774e+06
7.35643e+06
7.355e+06
7.35338e+06
7.35163e+06
7.34979e+06
7.34786e+06
7.34586e+06
7.34378e+06
7.34163e+06
7.33941e+06
7.33712e+06
7.33477e+06
7.33236e+06
7.32989e+06
7.32737e+06
7.3248e+06
7.32219e+06
7.31954e+06
7.31684e+06
7.3141e+06
7.31133e+06
7.30851e+06
7.30566e+06
7.30278e+06
7.29986e+06
7.29691e+06
7.29392e+06
7.29091e+06
7.28787e+06
7.28481e+06
7.28171e+06
7.2786e+06
7.27545e+06
7.27229e+06
7.2691e+06
7.2659e+06
7.26267e+06
7.25943e+06
7.25617e+06
7.25289e+06
7.24959e+06
7.24628e+06
7.24294e+06
7.23959e+06
7.23621e+06
7.23282e+06
7.2294e+06
7.22597e+06
7.22252e+06
7.21906e+06
7.21559e+06
7.2121e+06
7.2086e+06
7.20508e+06
7.20156e+06
7.19804e+06
7.19451e+06
7.19097e+06
7.18744e+06
7.18391e+06
)
;

boundaryField
{
    inlet
    {
        type            calculated;
        value           uniform 7.36481e+06;
    }
    outlet
    {
        type            calculated;
        value           uniform 7.18214e+06;
    }
    fixedWalls
    {
        type            calculated;
        value           nonuniform List<scalar> 
280
(
7.36462e+06
7.36425e+06
7.36386e+06
7.36346e+06
7.36293e+06
7.36219e+06
7.36125e+06
7.36016e+06
7.35898e+06
7.35774e+06
7.35643e+06
7.355e+06
7.35338e+06
7.35163e+06
7.34979e+06
7.34786e+06
7.34586e+06
7.34378e+06
7.34163e+06
7.33941e+06
7.33712e+06
7.33477e+06
7.33236e+06
7.32989e+06
7.32737e+06
7.3248e+06
7.32219e+06
7.31954e+06
7.31684e+06
7.3141e+06
7.31133e+06
7.30851e+06
7.30566e+06
7.30278e+06
7.29986e+06
7.29691e+06
7.29392e+06
7.29091e+06
7.28787e+06
7.28481e+06
7.28171e+06
7.2786e+06
7.27545e+06
7.27229e+06
7.2691e+06
7.2659e+06
7.26267e+06
7.25943e+06
7.25617e+06
7.25289e+06
7.24959e+06
7.24628e+06
7.24294e+06
7.23959e+06
7.23621e+06
7.23282e+06
7.2294e+06
7.22597e+06
7.22252e+06
7.21906e+06
7.21559e+06
7.2121e+06
7.2086e+06
7.20508e+06
7.20156e+06
7.19804e+06
7.19451e+06
7.19097e+06
7.18744e+06
7.18391e+06
7.36462e+06
7.36425e+06
7.36386e+06
7.36346e+06
7.36293e+06
7.36219e+06
7.36125e+06
7.36016e+06
7.35898e+06
7.35774e+06
7.35643e+06
7.355e+06
7.35338e+06
7.35163e+06
7.34979e+06
7.34786e+06
7.34586e+06
7.34378e+06
7.34163e+06
7.33941e+06
7.33712e+06
7.33477e+06
7.33236e+06
7.32989e+06
7.32737e+06
7.3248e+06
7.32219e+06
7.31954e+06
7.31684e+06
7.3141e+06
7.31133e+06
7.30851e+06
7.30566e+06
7.30278e+06
7.29986e+06
7.29691e+06
7.29392e+06
7.29091e+06
7.28787e+06
7.28481e+06
7.28171e+06
7.2786e+06
7.27545e+06
7.27229e+06
7.2691e+06
7.2659e+06
7.26267e+06
7.25943e+06
7.25617e+06
7.25289e+06
7.24959e+06
7.24628e+06
7.24294e+06
7.23959e+06
7.23621e+06
7.23282e+06
7.2294e+06
7.22597e+06
7.22252e+06
7.21906e+06
7.21559e+06
7.2121e+06
7.2086e+06
7.20508e+06
7.20156e+06
7.19804e+06
7.19451e+06
7.19097e+06
7.18744e+06
7.18391e+06
7.36462e+06
7.36425e+06
7.36386e+06
7.36346e+06
7.36293e+06
7.36219e+06
7.36125e+06
7.36016e+06
7.35898e+06
7.35774e+06
7.35643e+06
7.355e+06
7.35338e+06
7.35163e+06
7.34979e+06
7.34786e+06
7.34586e+06
7.34378e+06
7.34163e+06
7.33941e+06
7.33712e+06
7.33477e+06
7.33236e+06
7.32989e+06
7.32737e+06
7.3248e+06
7.32219e+06
7.31954e+06
7.31684e+06
7.3141e+06
7.31133e+06
7.30851e+06
7.30566e+06
7.30278e+06
7.29986e+06
7.29691e+06
7.29392e+06
7.29091e+06
7.28787e+06
7.28481e+06
7.28171e+06
7.2786e+06
7.27545e+06
7.27229e+06
7.2691e+06
7.2659e+06
7.26267e+06
7.25943e+06
7.25617e+06
7.25289e+06
7.24959e+06
7.24628e+06
7.24294e+06
7.23959e+06
7.23621e+06
7.23282e+06
7.2294e+06
7.22597e+06
7.22252e+06
7.21906e+06
7.21559e+06
7.2121e+06
7.2086e+06
7.20508e+06
7.20156e+06
7.19804e+06
7.19451e+06
7.19097e+06
7.18744e+06
7.18391e+06
7.36462e+06
7.36425e+06
7.36386e+06
7.36346e+06
7.36293e+06
7.36219e+06
7.36125e+06
7.36016e+06
7.35898e+06
7.35774e+06
7.35643e+06
7.355e+06
7.35338e+06
7.35163e+06
7.34979e+06
7.34786e+06
7.34586e+06
7.34378e+06
7.34163e+06
7.33941e+06
7.33712e+06
7.33477e+06
7.33236e+06
7.32989e+06
7.32737e+06
7.3248e+06
7.32219e+06
7.31954e+06
7.31684e+06
7.3141e+06
7.31133e+06
7.30851e+06
7.30566e+06
7.30278e+06
7.29986e+06
7.29691e+06
7.29392e+06
7.29091e+06
7.28787e+06
7.28481e+06
7.28171e+06
7.2786e+06
7.27545e+06
7.27229e+06
7.2691e+06
7.2659e+06
7.26267e+06
7.25943e+06
7.25617e+06
7.25289e+06
7.24959e+06
7.24628e+06
7.24294e+06
7.23959e+06
7.23621e+06
7.23282e+06
7.2294e+06
7.22597e+06
7.22252e+06
7.21906e+06
7.21559e+06
7.2121e+06
7.2086e+06
7.20508e+06
7.20156e+06
7.19804e+06
7.19451e+06
7.19097e+06
7.18744e+06
7.18391e+06
)
;
    }
}


// ************************************************************************* //
