/*--------------------------------*- C++ -*----------------------------------*\
| =========                 |                                                 |
| \\      /  F ield         | OpenFOAM: The Open Source CFD Toolbox           |
|  \\    /   O peration     | Version:  2406                                  |
|   \\  /    A nd           | Website:  www.openfoam.com                      |
|    \\/     M anipulation  |                                                 |
\*---------------------------------------------------------------------------*/
FoamFile
{
    version     2.0;
    format      ascii;
    arch        "LSB;label=32;scalar=64";
    class       volScalarField;
    location    "0.6/fluidRegion";
    object      alpha.vapour;
}
// * * * * * * * * * * * * * * * * * * * * * * * * * * * * * * * * * * * * * //

dimensions      [0 0 0 0 0 0 0];

internalField   nonuniform List<scalar> 
70
(
0
0
0
0
0
0
0
0
0
0
0
0
0
0
0
0
0
0
0
0
3.97856e-16
0
0
0
0
0
0
0
0
0
0
0
0
0
0
0
0
0
0
0
0
0
0
0
0
0
0
0
0
5.76782e-10
0.000749307
0.0021973
0.0042188
0.00684299
0.00996641
0.0134818
0.0173605
0.0215564
0.0260348
0.0307612
0.0357043
0.0408342
0.0461234
0.0515457
0.0570765
0.062693
0.0683737
0.074097
0.0798758
0.0849772
)
;

boundaryField
{
    inlet
    {
        type            inletOutlet;
        phi             phi.vapour;
        inletValue      uniform 0;
        value           uniform 0;
    }
    outlet
    {
        type            inletOutlet;
        phi             phi.vapour;
        inletValue      uniform 0;
        value           uniform 0.0849772;
    }
    fixedWalls
    {
        type            zeroGradient;
    }
}


// ************************************************************************* //
