/*--------------------------------*- C++ -*----------------------------------*\
| =========                 |                                                 |
| \\      /  F ield         | OpenFOAM: The Open Source CFD Toolbox           |
|  \\    /   O peration     | Version:  2406                                  |
|   \\  /    A nd           | Website:  www.openfoam.com                      |
|    \\/     M anipulation  |                                                 |
\*---------------------------------------------------------------------------*/
FoamFile
{
    version     2.0;
    format      ascii;
    arch        "LSB;label=32;scalar=64";
    class       volScalarField;
    location    "0.6/fluidRegion";
    object      dgdt.vapour;
}
// * * * * * * * * * * * * * * * * * * * * * * * * * * * * * * * * * * * * * //

dimensions      [0 0 -1 0 0 0 0];

internalField   nonuniform List<scalar> 
70
(
-0
-0
-0
-0
-0
-0
-0
-0
-0
-0
-0
-0
-0
-0
-0
-0
-0
-0
-0
-0
7.32978e-14
-2.87517e-13
-3.5188e-13
-7.73246e-13
-1.36839e-12
-1.89922e-12
-2.32248e-12
-3.2925e-12
-4.46019e-12
-5.82432e-12
-7.36659e-12
-9.05117e-12
-1.08431e-11
-1.2712e-11
-1.46375e-11
-1.65954e-11
-1.85603e-11
-2.05259e-11
-2.24772e-11
-2.44386e-11
-2.62745e-11
-2.81282e-11
-2.98105e-11
-3.15231e-11
-3.30407e-11
-3.45911e-11
-3.59098e-11
-3.72638e-11
-3.84919e-11
1.12963e-07
0.174719
0.365689
0.543752
0.711936
0.872965
1.02649
1.17317
1.31436
1.45078
1.58302
1.71147
1.83636
1.95784
2.07594
2.19064
2.30186
2.40947
2.51332
2.61324
2.70992
)
;

boundaryField
{
    inlet
    {
        type            calculated;
        value           uniform -0;
    }
    outlet
    {
        type            calculated;
        value           uniform 2.70992;
    }
    fixedWalls
    {
        type            calculated;
        value           nonuniform List<scalar> 
280
(
-0
-0
-0
-0
-0
-0
-0
-0
-0
-0
-0
-0
-0
-0
-0
-0
-0
-0
-0
-0
7.32978e-14
-2.87517e-13
-3.5188e-13
-7.73246e-13
-1.36839e-12
-1.89922e-12
-2.32248e-12
-3.2925e-12
-4.46019e-12
-5.82432e-12
-7.36659e-12
-9.05117e-12
-1.08431e-11
-1.2712e-11
-1.46375e-11
-1.65954e-11
-1.85603e-11
-2.05259e-11
-2.24772e-11
-2.44386e-11
-2.62745e-11
-2.81282e-11
-2.98105e-11
-3.15231e-11
-3.30407e-11
-3.45911e-11
-3.59098e-11
-3.72638e-11
-3.84919e-11
1.12963e-07
0.174719
0.365689
0.543752
0.711936
0.872965
1.02649
1.17317
1.31436
1.45078
1.58302
1.71147
1.83636
1.95784
2.07594
2.19064
2.30186
2.40947
2.51332
2.61324
2.70992
-0
-0
-0
-0
-0
-0
-0
-0
-0
-0
-0
-0
-0
-0
-0
-0
-0
-0
-0
-0
7.32978e-14
-2.87517e-13
-3.5188e-13
-7.73246e-13
-1.36839e-12
-1.89922e-12
-2.32248e-12
-3.2925e-12
-4.46019e-12
-5.82432e-12
-7.36659e-12
-9.05117e-12
-1.08431e-11
-1.2712e-11
-1.46375e-11
-1.65954e-11
-1.85603e-11
-2.05259e-11
-2.24772e-11
-2.44386e-11
-2.62745e-11
-2.81282e-11
-2.98105e-11
-3.15231e-11
-3.30407e-11
-3.45911e-11
-3.59098e-11
-3.72638e-11
-3.84919e-11
1.12963e-07
0.174719
0.365689
0.543752
0.711936
0.872965
1.02649
1.17317
1.31436
1.45078
1.58302
1.71147
1.83636
1.95784
2.07594
2.19064
2.30186
2.40947
2.51332
2.61324
2.70992
-0
-0
-0
-0
-0
-0
-0
-0
-0
-0
-0
-0
-0
-0
-0
-0
-0
-0
-0
-0
7.32978e-14
-2.87517e-13
-3.5188e-13
-7.73246e-13
-1.36839e-12
-1.89922e-12
-2.32248e-12
-3.2925e-12
-4.46019e-12
-5.82432e-12
-7.36659e-12
-9.05117e-12
-1.08431e-11
-1.2712e-11
-1.46375e-11
-1.65954e-11
-1.85603e-11
-2.05259e-11
-2.24772e-11
-2.44386e-11
-2.62745e-11
-2.81282e-11
-2.98105e-11
-3.15231e-11
-3.30407e-11
-3.45911e-11
-3.59098e-11
-3.72638e-11
-3.84919e-11
1.12963e-07
0.174719
0.365689
0.543752
0.711936
0.872965
1.02649
1.17317
1.31436
1.45078
1.58302
1.71147
1.83636
1.95784
2.07594
2.19064
2.30186
2.40947
2.51332
2.61324
2.70992
-0
-0
-0
-0
-0
-0
-0
-0
-0
-0
-0
-0
-0
-0
-0
-0
-0
-0
-0
-0
7.32978e-14
-2.87517e-13
-3.5188e-13
-7.73246e-13
-1.36839e-12
-1.89922e-12
-2.32248e-12
-3.2925e-12
-4.46019e-12
-5.82432e-12
-7.36659e-12
-9.05117e-12
-1.08431e-11
-1.2712e-11
-1.46375e-11
-1.65954e-11
-1.85603e-11
-2.05259e-11
-2.24772e-11
-2.44386e-11
-2.62745e-11
-2.81282e-11
-2.98105e-11
-3.15231e-11
-3.30407e-11
-3.45911e-11
-3.59098e-11
-3.72638e-11
-3.84919e-11
1.12963e-07
0.174719
0.365689
0.543752
0.711936
0.872965
1.02649
1.17317
1.31436
1.45078
1.58302
1.71147
1.83636
1.95784
2.07594
2.19064
2.30186
2.40947
2.51332
2.61324
2.70992
)
;
    }
}


// ************************************************************************* //
