/*--------------------------------*- C++ -*----------------------------------*\
| =========                 |                                                 |
| \\      /  F ield         | OpenFOAM: The Open Source CFD Toolbox           |
|  \\    /   O peration     | Version:  2406                                  |
|   \\  /    A nd           | Website:  www.openfoam.com                      |
|    \\/     M anipulation  |                                                 |
\*---------------------------------------------------------------------------*/
FoamFile
{
    version     2.0;
    format      ascii;
    arch        "LSB;label=32;scalar=64";
    class       volScalarField;
    location    "0.6/fluidRegion";
    object      dmdt.liquid.vapour;
}
// * * * * * * * * * * * * * * * * * * * * * * * * * * * * * * * * * * * * * //

dimensions      [1 -3 -1 0 0 0 0];

internalField   nonuniform List<scalar> 
70
(
0
0
0
0
0
0
0
0
0
0
0
0
0
0
0
0
0
0
0
0
3.8115e-12
-1.49509e-11
-1.82975e-11
-4.02079e-11
-7.11543e-11
-9.87557e-11
-1.20763e-10
-1.712e-10
-2.31914e-10
-3.02842e-10
-3.83031e-10
-4.70617e-10
-5.63784e-10
-6.60951e-10
-7.6106e-10
-8.62852e-10
-9.65001e-10
-1.06719e-09
-1.16863e-09
-1.2706e-09
-1.36604e-09
-1.4624e-09
-1.54985e-09
-1.63887e-09
-1.71776e-09
-1.79834e-09
-1.86689e-09
-1.93726e-09
-2.00109e-09
5.87257e-06
9.08299
19.0105
28.2667
37.0089
45.3786
53.3576
60.9806
68.317
75.4052
82.2753
88.9472
95.4337
101.742
107.873
113.827
119.599
125.182
130.569
135.751
140.725
)
;

boundaryField
{
    inlet
    {
        type            zeroGradient;
    }
    outlet
    {
        type            zeroGradient;
    }
    fixedWalls
    {
        type            zeroGradient;
    }
}


// ************************************************************************* //
