/*--------------------------------*- C++ -*----------------------------------*\
| =========                 |                                                 |
| \\      /  F ield         | OpenFOAM: The Open Source CFD Toolbox           |
|  \\    /   O peration     | Version:  2406                                  |
|   \\  /    A nd           | Website:  www.openfoam.com                      |
|    \\/     M anipulation  |                                                 |
\*---------------------------------------------------------------------------*/
FoamFile
{
    version     2.0;
    format      ascii;
    arch        "LSB;label=32;scalar=64";
    class       volScalarField;
    location    "0.6/fluidRegion";
    object      htc.liquid.structure;
}
// * * * * * * * * * * * * * * * * * * * * * * * * * * * * * * * * * * * * * //

dimensions      [1 0 -3 -1 0 0 0];

internalField   nonuniform List<scalar> 
70
(
48548.9
49311.7
50097
50905.6
51738.5
52596.8
53481.6
54394.2
55335.7
56307.5
57311.1
58347.9
59419.6
60527.9
61674.7
62861.9
64091.6
65366.1
66687.8
68059.4
69483.5
70963.3
72501.9
74102.8
75770
77507.3
79319.4
81211
83187.3
85254.1
87417.7
89684.9
92063.2
94560.8
97186.9
99951.5
102866
105942
109193
112636
116287
120165
124292
128693
133396
138432
143839
149657
155936
162733
169750
176936
184295
191822
199509
207345
215320
223417
231614
239887
248206
256537
264844
273088
281226
289215
297013
304576
311864
318839
)
;

boundaryField
{
    inlet
    {
        type            zeroGradient;
    }
    outlet
    {
        type            zeroGradient;
    }
    fixedWalls
    {
        type            zeroGradient;
    }
}


// ************************************************************************* //
