/*--------------------------------*- C++ -*----------------------------------*\
| =========                 |                                                 |
| \\      /  F ield         | OpenFOAM: The Open Source CFD Toolbox           |
|  \\    /   O peration     | Version:  2406                                  |
|   \\  /    A nd           | Website:  www.openfoam.com                      |
|    \\/     M anipulation  |                                                 |
\*---------------------------------------------------------------------------*/
FoamFile
{
    version     2.0;
    format      ascii;
    arch        "LSB;label=32;scalar=64";
    class       volScalarField;
    location    "0.6/fluidRegion";
    object      htc.liquid.interface;
}
// * * * * * * * * * * * * * * * * * * * * * * * * * * * * * * * * * * * * * //

dimensions      [1 0 -3 -1 0 0 0];

internalField   nonuniform List<scalar> 
70
(
2073.46
2071.18
2068.91
2066.64
2064.39
2062.13
2059.89
2057.65
2055.42
2053.2
2050.99
2048.78
2046.58
2044.39
2042.21
2040.03
2037.87
2035.71
2033.56
2031.42
2029.29
2027.16
2025.05
2022.94
2020.85
2018.76
2016.68
2014.61
2012.55
2010.5
2008.46
2006.42
2004.4
2002.38
2000.38
1998.38
1996.39
1994.42
1992.45
1990.49
1988.54
1986.6
1984.67
1982.75
1980.83
1978.93
1977.04
1975.15
1973.28
2528.65
12290
19975.8
24707.6
27336.2
28737.5
30154.4
31617.6
32990.8
34284
35504.7
36668
37786.1
38869.3
39925.6
40961.1
41980.4
42987
43984.2
44958.2
46249.3
)
;

boundaryField
{
    inlet
    {
        type            zeroGradient;
    }
    outlet
    {
        type            zeroGradient;
    }
    fixedWalls
    {
        type            zeroGradient;
    }
}


// ************************************************************************* //
