/*--------------------------------*- C++ -*----------------------------------*\
| =========                 |                                                 |
| \\      /  F ield         | OpenFOAM: The Open Source CFD Toolbox           |
|  \\    /   O peration     | Version:  2406                                  |
|   \\  /    A nd           | Website:  www.openfoam.com                      |
|    \\/     M anipulation  |                                                 |
\*---------------------------------------------------------------------------*/
FoamFile
{
    version     2.0;
    format      ascii;
    arch        "LSB;label=32;scalar=64";
    class       volTensorField;
    location    "0.6/fluidRegion";
    object      Kd.liquid.structure;
}
// * * * * * * * * * * * * * * * * * * * * * * * * * * * * * * * * * * * * * //

dimensions      [1 -3 -1 0 0 0 0];

internalField   nonuniform List<tensor> 
70
(
(737.99 0 0 0 737.99 0 0 0 737.99)
(737.618 0 0 0 737.618 0 0 0 737.618)
(737.246 0 0 0 737.246 0 0 0 737.246)
(736.873 0 0 0 736.873 0 0 0 736.873)
(736.5 0 0 0 736.5 0 0 0 736.5)
(736.126 0 0 0 736.126 0 0 0 736.126)
(735.751 0 0 0 735.751 0 0 0 735.751)
(735.376 0 0 0 735.376 0 0 0 735.376)
(735 0 0 0 735 0 0 0 735)
(734.624 0 0 0 734.624 0 0 0 734.624)
(734.246 0 0 0 734.246 0 0 0 734.246)
(733.868 0 0 0 733.868 0 0 0 733.868)
(733.49 0 0 0 733.49 0 0 0 733.49)
(733.111 0 0 0 733.111 0 0 0 733.111)
(732.731 0 0 0 732.731 0 0 0 732.731)
(732.35 0 0 0 732.35 0 0 0 732.35)
(731.969 0 0 0 731.969 0 0 0 731.969)
(731.587 0 0 0 731.587 0 0 0 731.587)
(731.205 0 0 0 731.205 0 0 0 731.205)
(730.821 0 0 0 730.821 0 0 0 730.821)
(730.437 0 0 0 730.437 0 0 0 730.437)
(730.052 0 0 0 730.052 0 0 0 730.052)
(729.667 0 0 0 729.667 0 0 0 729.667)
(729.281 0 0 0 729.281 0 0 0 729.281)
(728.894 0 0 0 728.894 0 0 0 728.894)
(728.506 0 0 0 728.506 0 0 0 728.506)
(728.118 0 0 0 728.118 0 0 0 728.118)
(727.729 0 0 0 727.729 0 0 0 727.729)
(727.339 0 0 0 727.339 0 0 0 727.339)
(726.949 0 0 0 726.949 0 0 0 726.949)
(726.558 0 0 0 726.558 0 0 0 726.558)
(726.166 0 0 0 726.166 0 0 0 726.166)
(725.774 0 0 0 725.774 0 0 0 725.774)
(725.38 0 0 0 725.38 0 0 0 725.38)
(724.987 0 0 0 724.987 0 0 0 724.987)
(724.592 0 0 0 724.592 0 0 0 724.592)
(724.197 0 0 0 724.197 0 0 0 724.197)
(723.801 0 0 0 723.801 0 0 0 723.801)
(723.404 0 0 0 723.404 0 0 0 723.404)
(723.007 0 0 0 723.007 0 0 0 723.007)
(722.609 0 0 0 722.609 0 0 0 722.609)
(722.21 0 0 0 722.21 0 0 0 722.21)
(721.811 0 0 0 721.811 0 0 0 721.811)
(721.411 0 0 0 721.411 0 0 0 721.411)
(721.011 0 0 0 721.011 0 0 0 721.011)
(720.609 0 0 0 720.609 0 0 0 720.609)
(720.208 0 0 0 720.208 0 0 0 720.208)
(719.805 0 0 0 719.805 0 0 0 719.805)
(719.402 0 0 0 719.402 0 0 0 719.402)
(718.998 0 0 0 718.998 0 0 0 718.998)
(732.11 0 0 0 732.11 0 0 0 732.11)
(755.633 0 0 0 755.633 0 0 0 755.633)
(787.976 0 0 0 787.976 0 0 0 787.976)
(828.497 0 0 0 828.497 0 0 0 828.497)
(874.742 0 0 0 874.742 0 0 0 874.742)
(926.296 0 0 0 926.296 0 0 0 926.296)
(983.068 0 0 0 983.068 0 0 0 983.068)
(1044.21 0 0 0 1044.21 0 0 0 1044.21)
(1109.27 0 0 0 1109.27 0 0 0 1109.27)
(1177.76 0 0 0 1177.76 0 0 0 1177.76)
(1249.29 0 0 0 1249.29 0 0 0 1249.29)
(1323.48 0 0 0 1323.48 0 0 0 1323.48)
(1400.03 0 0 0 1400.03 0 0 0 1400.03)
(1478.61 0 0 0 1478.61 0 0 0 1478.61)
(1558.96 0 0 0 1558.96 0 0 0 1558.96)
(1640.8 0 0 0 1640.8 0 0 0 1640.8)
(1723.89 0 0 0 1723.89 0 0 0 1723.89)
(1808 0 0 0 1808 0 0 0 1808)
(1893.02 0 0 0 1893.02 0 0 0 1893.02)
(1976.26 0 0 0 1976.26 0 0 0 1976.26)
)
;

boundaryField
{
    inlet
    {
        type            zeroGradient;
    }
    outlet
    {
        type            zeroGradient;
    }
    fixedWalls
    {
        type            zeroGradient;
    }
}


// ************************************************************************* //
