/*--------------------------------*- C++ -*----------------------------------*\
| =========                 |                                                 |
| \\      /  F ield         | OpenFOAM: The Open Source CFD Toolbox           |
|  \\    /   O peration     | Version:  2406                                  |
|   \\  /    A nd           | Website:  www.openfoam.com                      |
|    \\/     M anipulation  |                                                 |
\*---------------------------------------------------------------------------*/
FoamFile
{
    version     2.0;
    format      ascii;
    arch        "LSB;label=32;scalar=64";
    class       volTensorField;
    location    "0.6/fluidRegion";
    object      KdTotU;
}
// * * * * * * * * * * * * * * * * * * * * * * * * * * * * * * * * * * * * * //

dimensions      [1 -2 -2 0 0 0 0];

internalField   nonuniform List<tensor> 
70
(
(3299.23 0 0 0 3299.23 0 0 0 3299.23)
(3302.7 0 0 0 3302.7 0 0 0 3302.7)
(3306.19 0 0 0 3306.19 0 0 0 3306.19)
(3309.7 0 0 0 3309.7 0 0 0 3309.7)
(3313.24 0 0 0 3313.24 0 0 0 3313.24)
(3316.79 0 0 0 3316.79 0 0 0 3316.79)
(3320.37 0 0 0 3320.37 0 0 0 3320.37)
(3323.96 0 0 0 3323.96 0 0 0 3323.96)
(3327.58 0 0 0 3327.58 0 0 0 3327.58)
(3331.22 0 0 0 3331.22 0 0 0 3331.22)
(3334.87 0 0 0 3334.87 0 0 0 3334.87)
(3338.54 0 0 0 3338.54 0 0 0 3338.54)
(3342.24 0 0 0 3342.24 0 0 0 3342.24)
(3345.95 0 0 0 3345.95 0 0 0 3345.95)
(3349.68 0 0 0 3349.68 0 0 0 3349.68)
(3353.43 0 0 0 3353.43 0 0 0 3353.43)
(3357.19 0 0 0 3357.19 0 0 0 3357.19)
(3360.97 0 0 0 3360.97 0 0 0 3360.97)
(3364.77 0 0 0 3364.77 0 0 0 3364.77)
(3368.59 0 0 0 3368.59 0 0 0 3368.59)
(3372.42 0 0 0 3372.42 0 0 0 3372.42)
(3376.27 0 0 0 3376.27 0 0 0 3376.27)
(3380.13 0 0 0 3380.13 0 0 0 3380.13)
(3384.01 0 0 0 3384.01 0 0 0 3384.01)
(3387.9 0 0 0 3387.9 0 0 0 3387.9)
(3391.81 0 0 0 3391.81 0 0 0 3391.81)
(3395.73 0 0 0 3395.73 0 0 0 3395.73)
(3399.67 0 0 0 3399.67 0 0 0 3399.67)
(3403.62 0 0 0 3403.62 0 0 0 3403.62)
(3407.58 0 0 0 3407.58 0 0 0 3407.58)
(3411.55 0 0 0 3411.55 0 0 0 3411.55)
(3415.54 0 0 0 3415.54 0 0 0 3415.54)
(3419.54 0 0 0 3419.54 0 0 0 3419.54)
(3423.56 0 0 0 3423.56 0 0 0 3423.56)
(3427.58 0 0 0 3427.58 0 0 0 3427.58)
(3431.61 0 0 0 3431.61 0 0 0 3431.61)
(3435.66 0 0 0 3435.66 0 0 0 3435.66)
(3439.72 0 0 0 3439.72 0 0 0 3439.72)
(3443.78 0 0 0 3443.78 0 0 0 3443.78)
(3447.86 0 0 0 3447.86 0 0 0 3447.86)
(3451.95 0 0 0 3451.95 0 0 0 3451.95)
(3456.04 0 0 0 3456.04 0 0 0 3456.04)
(3460.15 0 0 0 3460.15 0 0 0 3460.15)
(3464.26 0 0 0 3464.26 0 0 0 3464.26)
(3468.38 0 0 0 3468.38 0 0 0 3468.38)
(3472.51 0 0 0 3472.51 0 0 0 3472.51)
(3476.65 0 0 0 3476.65 0 0 0 3476.65)
(3480.8 0 0 0 3480.8 0 0 0 3480.8)
(3484.95 0 0 0 3484.95 0 0 0 3484.95)
(3489.11 0 0 0 3489.11 0 0 0 3489.11)
(3560.85 0 0 0 3560.85 0 0 0 3560.85)
(3687.37 0 0 0 3687.37 0 0 0 3687.37)
(3861.2 0 0 0 3861.2 0 0 0 3861.2)
(4079.94 0 0 0 4079.94 0 0 0 4079.94)
(4332.38 0 0 0 4332.38 0 0 0 4332.38)
(4616.84 0 0 0 4616.84 0 0 0 4616.84)
(4933.43 0 0 0 4933.43 0 0 0 4933.43)
(5278.7 0 0 0 5278.7 0 0 0 5278.7)
(5651.04 0 0 0 5651.04 0 0 0 5651.04)
(6048.71 0 0 0 6048.71 0 0 0 6048.71)
(6470.34 0 0 0 6470.34 0 0 0 6470.34)
(6914.66 0 0 0 6914.66 0 0 0 6914.66)
(7380.51 0 0 0 7380.51 0 0 0 7380.51)
(7866.81 0 0 0 7866.81 0 0 0 7866.81)
(8372.48 0 0 0 8372.48 0 0 0 8372.48)
(8896.51 0 0 0 8896.51 0 0 0 8896.51)
(9437.87 0 0 0 9437.87 0 0 0 9437.87)
(9995.5 0 0 0 9995.5 0 0 0 9995.5)
(10569.3 0 0 0 10569.3 0 0 0 10569.3)
(11136.9 0 0 0 11136.9 0 0 0 11136.9)
)
;

boundaryField
{
    inlet
    {
        type            zeroGradient;
    }
    outlet
    {
        type            zeroGradient;
    }
    fixedWalls
    {
        type            zeroGradient;
    }
}


// ************************************************************************* //
