/*--------------------------------*- C++ -*----------------------------------*\
| =========                 |                                                 |
| \\      /  F ield         | OpenFOAM: The Open Source CFD Toolbox           |
|  \\    /   O peration     | Version:  2406                                  |
|   \\  /    A nd           | Website:  www.openfoam.com                      |
|    \\/     M anipulation  |                                                 |
\*---------------------------------------------------------------------------*/
FoamFile
{
    version     2.0;
    format      ascii;
    arch        "LSB;label=32;scalar=64";
    class       volScalarField;
    location    "0.6/fluidRegion";
    object      p;
}
// * * * * * * * * * * * * * * * * * * * * * * * * * * * * * * * * * * * * * //

dimensions      [1 -1 -2 0 0 0 0];

internalField   nonuniform List<scalar> 
70
(
1.47346e+07
1.47344e+07
1.47343e+07
1.47342e+07
1.4734e+07
1.47339e+07
1.47337e+07
1.47336e+07
1.47334e+07
1.47333e+07
1.47332e+07
1.4733e+07
1.47329e+07
1.47327e+07
1.47326e+07
1.47324e+07
1.47323e+07
1.47321e+07
1.4732e+07
1.47318e+07
1.47317e+07
1.47315e+07
1.47314e+07
1.47312e+07
1.47311e+07
1.47309e+07
1.47308e+07
1.47306e+07
1.47305e+07
1.47303e+07
1.47302e+07
1.473e+07
1.47299e+07
1.47297e+07
1.47296e+07
1.47294e+07
1.47293e+07
1.47291e+07
1.4729e+07
1.47288e+07
1.47287e+07
1.47285e+07
1.47284e+07
1.47282e+07
1.47281e+07
1.47279e+07
1.47278e+07
1.47276e+07
1.47275e+07
1.47273e+07
1.47271e+07
1.4727e+07
1.47268e+07
1.47266e+07
1.47263e+07
1.47261e+07
1.47258e+07
1.47255e+07
1.47252e+07
1.47248e+07
1.47245e+07
1.47241e+07
1.47237e+07
1.47232e+07
1.47228e+07
1.47223e+07
1.47218e+07
1.47213e+07
1.47207e+07
1.47201e+07
)
;

boundaryField
{
    inlet
    {
        type            calculated;
        value           uniform 1.47346e+07;
    }
    outlet
    {
        type            calculated;
        value           uniform 1.47198e+07;
    }
    fixedWalls
    {
        type            calculated;
        value           nonuniform List<scalar> 
280
(
1.47346e+07
1.47344e+07
1.47343e+07
1.47342e+07
1.4734e+07
1.47339e+07
1.47337e+07
1.47336e+07
1.47334e+07
1.47333e+07
1.47332e+07
1.4733e+07
1.47329e+07
1.47327e+07
1.47326e+07
1.47324e+07
1.47323e+07
1.47321e+07
1.4732e+07
1.47318e+07
1.47317e+07
1.47315e+07
1.47314e+07
1.47312e+07
1.47311e+07
1.47309e+07
1.47308e+07
1.47306e+07
1.47305e+07
1.47303e+07
1.47302e+07
1.473e+07
1.47299e+07
1.47297e+07
1.47296e+07
1.47294e+07
1.47293e+07
1.47291e+07
1.4729e+07
1.47288e+07
1.47287e+07
1.47285e+07
1.47284e+07
1.47282e+07
1.47281e+07
1.47279e+07
1.47278e+07
1.47276e+07
1.47275e+07
1.47273e+07
1.47271e+07
1.4727e+07
1.47268e+07
1.47266e+07
1.47263e+07
1.47261e+07
1.47258e+07
1.47255e+07
1.47252e+07
1.47248e+07
1.47245e+07
1.47241e+07
1.47237e+07
1.47232e+07
1.47228e+07
1.47223e+07
1.47218e+07
1.47213e+07
1.47207e+07
1.47201e+07
1.47346e+07
1.47344e+07
1.47343e+07
1.47342e+07
1.4734e+07
1.47339e+07
1.47337e+07
1.47336e+07
1.47334e+07
1.47333e+07
1.47332e+07
1.4733e+07
1.47329e+07
1.47327e+07
1.47326e+07
1.47324e+07
1.47323e+07
1.47321e+07
1.4732e+07
1.47318e+07
1.47317e+07
1.47315e+07
1.47314e+07
1.47312e+07
1.47311e+07
1.47309e+07
1.47308e+07
1.47306e+07
1.47305e+07
1.47303e+07
1.47302e+07
1.473e+07
1.47299e+07
1.47297e+07
1.47296e+07
1.47294e+07
1.47293e+07
1.47291e+07
1.4729e+07
1.47288e+07
1.47287e+07
1.47285e+07
1.47284e+07
1.47282e+07
1.47281e+07
1.47279e+07
1.47278e+07
1.47276e+07
1.47275e+07
1.47273e+07
1.47271e+07
1.4727e+07
1.47268e+07
1.47266e+07
1.47263e+07
1.47261e+07
1.47258e+07
1.47255e+07
1.47252e+07
1.47248e+07
1.47245e+07
1.47241e+07
1.47237e+07
1.47232e+07
1.47228e+07
1.47223e+07
1.47218e+07
1.47213e+07
1.47207e+07
1.47201e+07
1.47346e+07
1.47344e+07
1.47343e+07
1.47342e+07
1.4734e+07
1.47339e+07
1.47337e+07
1.47336e+07
1.47334e+07
1.47333e+07
1.47332e+07
1.4733e+07
1.47329e+07
1.47327e+07
1.47326e+07
1.47324e+07
1.47323e+07
1.47321e+07
1.4732e+07
1.47318e+07
1.47317e+07
1.47315e+07
1.47314e+07
1.47312e+07
1.47311e+07
1.47309e+07
1.47308e+07
1.47306e+07
1.47305e+07
1.47303e+07
1.47302e+07
1.473e+07
1.47299e+07
1.47297e+07
1.47296e+07
1.47294e+07
1.47293e+07
1.47291e+07
1.4729e+07
1.47288e+07
1.47287e+07
1.47285e+07
1.47284e+07
1.47282e+07
1.47281e+07
1.47279e+07
1.47278e+07
1.47276e+07
1.47275e+07
1.47273e+07
1.47271e+07
1.4727e+07
1.47268e+07
1.47266e+07
1.47263e+07
1.47261e+07
1.47258e+07
1.47255e+07
1.47252e+07
1.47248e+07
1.47245e+07
1.47241e+07
1.47237e+07
1.47232e+07
1.47228e+07
1.47223e+07
1.47218e+07
1.47213e+07
1.47207e+07
1.47201e+07
1.47346e+07
1.47344e+07
1.47343e+07
1.47342e+07
1.4734e+07
1.47339e+07
1.47337e+07
1.47336e+07
1.47334e+07
1.47333e+07
1.47332e+07
1.4733e+07
1.47329e+07
1.47327e+07
1.47326e+07
1.47324e+07
1.47323e+07
1.47321e+07
1.4732e+07
1.47318e+07
1.47317e+07
1.47315e+07
1.47314e+07
1.47312e+07
1.47311e+07
1.47309e+07
1.47308e+07
1.47306e+07
1.47305e+07
1.47303e+07
1.47302e+07
1.473e+07
1.47299e+07
1.47297e+07
1.47296e+07
1.47294e+07
1.47293e+07
1.47291e+07
1.4729e+07
1.47288e+07
1.47287e+07
1.47285e+07
1.47284e+07
1.47282e+07
1.47281e+07
1.47279e+07
1.47278e+07
1.47276e+07
1.47275e+07
1.47273e+07
1.47271e+07
1.4727e+07
1.47268e+07
1.47266e+07
1.47263e+07
1.47261e+07
1.47258e+07
1.47255e+07
1.47252e+07
1.47248e+07
1.47245e+07
1.47241e+07
1.47237e+07
1.47232e+07
1.47228e+07
1.47223e+07
1.47218e+07
1.47213e+07
1.47207e+07
1.47201e+07
)
;
    }
}


// ************************************************************************* //
