/*--------------------------------*- C++ -*----------------------------------*\
| =========                 |                                                 |
| \\      /  F ield         | OpenFOAM: The Open Source CFD Toolbox           |
|  \\    /   O peration     | Version:  2406                                  |
|   \\  /    A nd           | Website:  www.openfoam.com                      |
|    \\/     M anipulation  |                                                 |
\*---------------------------------------------------------------------------*/
FoamFile
{
    version     2.0;
    format      ascii;
    arch        "LSB;label=32;scalar=64";
    class       volScalarField;
    location    "0.6/fluidRegion";
    object      Re.liquid.structure;
}
// * * * * * * * * * * * * * * * * * * * * * * * * * * * * * * * * * * * * * //

dimensions      [0 0 0 0 0 0 0];

internalField   nonuniform List<scalar> 
70
(
545616
546709
547807
548909
550016
551128
552244
553366
554492
555623
556759
557901
559047
560199
561355
562517
563684
564857
566034
567217
568406
569600
570799
572004
573215
574431
575652
576879
578112
579351
580595
581845
583101
584362
585629
586902
588181
589466
590756
592053
593355
594663
595977
597297
598623
599955
601292
602636
603985
605341
606252
607054
607783
608366
608878
609325
609673
609935
610108
610197
610202
610127
609972
609740
609433
609053
608603
608086
607486
607242
)
;

boundaryField
{
    inlet
    {
        type            zeroGradient;
    }
    outlet
    {
        type            zeroGradient;
    }
    fixedWalls
    {
        type            zeroGradient;
    }
}


// ************************************************************************* //
