/*--------------------------------*- C++ -*----------------------------------*\
| =========                 |                                                 |
| \\      /  F ield         | OpenFOAM: The Open Source CFD Toolbox           |
|  \\    /   O peration     | Version:  2406                                  |
|   \\  /    A nd           | Website:  www.openfoam.com                      |
|    \\/     M anipulation  |                                                 |
\*---------------------------------------------------------------------------*/
FoamFile
{
    version     2.0;
    format      ascii;
    arch        "LSB;label=32;scalar=64";
    class       volScalarField;
    location    "0.6/fluidRegion";
    object      T.fixedPower;
}
// * * * * * * * * * * * * * * * * * * * * * * * * * * * * * * * * * * * * * //

dimensions      [0 0 0 1 0 0 0];

internalField   nonuniform List<scalar> 
70
(
617.039
617.044
617.049
617.053
617.057
617.061
617.065
617.068
617.071
617.074
617.077
617.079
617.081
617.084
617.085
617.087
617.089
617.09
617.092
617.093
617.094
617.095
617.096
617.096
617.097
617.097
617.098
617.098
617.098
617.098
617.098
617.098
617.098
617.097
617.097
617.096
617.096
617.095
617.095
617.094
617.093
617.092
617.091
617.091
617.09
617.089
617.087
617.086
617.085
617.084
617.083
617.082
617.08
617.079
617.077
617.076
617.074
617.072
617.07
617.068
617.066
617.064
617.061
617.059
617.056
617.054
617.051
617.048
617.045
617.042
)
;

boundaryField
{
    inlet
    {
        type            zeroGradient;
    }
    outlet
    {
        type            zeroGradient;
    }
    fixedWalls
    {
        type            zeroGradient;
    }
}


// ************************************************************************* //
