/*--------------------------------*- C++ -*----------------------------------*\
| =========                 |                                                 |
| \\      /  F ield         | OpenFOAM: The Open Source CFD Toolbox           |
|  \\    /   O peration     | Version:  2406                                  |
|   \\  /    A nd           | Website:  www.openfoam.com                      |
|    \\/     M anipulation  |                                                 |
\*---------------------------------------------------------------------------*/
FoamFile
{
    version     2.0;
    format      ascii;
    arch        "LSB;label=32;scalar=64";
    class       volScalarField;
    location    "0.6/fluidRegion";
    object      T.vapour;
}
// * * * * * * * * * * * * * * * * * * * * * * * * * * * * * * * * * * * * * //

dimensions      [0 0 0 1 0 0 0];

internalField   nonuniform List<scalar> 
70
(
613.854
613.853
613.852
613.851
613.851
613.85
613.849
613.848
613.847
613.847
613.846
613.845
613.844
613.844
613.843
613.842
613.841
613.84
613.84
613.839
613.838
613.837
613.836
613.836
613.835
613.834
613.833
613.832
613.832
613.831
613.83
613.829
613.828
613.827
613.827
613.826
613.825
613.824
613.823
613.823
613.822
613.821
613.82
613.819
613.818
613.818
613.817
613.816
613.815
613.814
613.813
613.812
613.811
613.811
613.81
613.809
613.809
613.808
613.807
613.805
613.804
613.803
613.802
613.8
613.799
613.797
613.795
613.794
613.792
613.79
)
;

boundaryField
{
    inlet
    {
        type            fixedValue;
        value           uniform 592.75;
    }
    outlet
    {
        type            zeroGradient;
    }
    fixedWalls
    {
        type            zeroGradient;
    }
}


// ************************************************************************* //
