/*--------------------------------*- C++ -*----------------------------------*\
| =========                 |                                                 |
| \\      /  F ield         | OpenFOAM: The Open Source CFD Toolbox           |
|  \\    /   O peration     | Version:  2406                                  |
|   \\  /    A nd           | Website:  www.openfoam.com                      |
|    \\/     M anipulation  |                                                 |
\*---------------------------------------------------------------------------*/
FoamFile
{
    version     2.0;
    format      ascii;
    arch        "LSB;label=32;scalar=64";
    class       volVectorField;
    location    "0.6/fluidRegion";
    object      U.vapour;
}
// * * * * * * * * * * * * * * * * * * * * * * * * * * * * * * * * * * * * * //

dimensions      [0 1 -1 0 0 0 0];

internalField   nonuniform List<vector> 
70
(
(4.47056 0 0)
(4.47752 0 0)
(4.48451 0 0)
(4.49155 0 0)
(4.49862 0 0)
(4.50574 0 0)
(4.51289 0 0)
(4.52009 0 0)
(4.52732 0 0)
(4.53459 0 0)
(4.5419 0 0)
(4.54924 0 0)
(4.55662 0 0)
(4.56404 0 0)
(4.5715 0 0)
(4.57899 0 0)
(4.58652 0 0)
(4.59409 0 0)
(4.60168 0 0)
(4.60932 0 0)
(4.61699 0 0)
(4.62469 0 0)
(4.63243 0 0)
(4.6402 0 0)
(4.648 0 0)
(4.65584 0 0)
(4.66371 0 0)
(4.67161 0 0)
(4.67954 0 0)
(4.68751 0 0)
(4.6955 0 0)
(4.70353 0 0)
(4.71158 0 0)
(4.71967 0 0)
(4.72778 0 0)
(4.73593 0 0)
(4.7441 0 0)
(4.7523 0 0)
(4.76053 0 0)
(4.76878 0 0)
(4.77706 0 0)
(4.78537 0 0)
(4.7937 0 0)
(4.80206 0 0)
(4.81045 0 0)
(4.81886 0 0)
(4.82729 0 0)
(4.83575 0 0)
(4.84424 0 0)
(4.85557 0 0)
(5.0179 0 0)
(5.315 0 0)
(5.57934 0 0)
(5.76267 0 0)
(5.88254 0 0)
(6.01141 0 0)
(6.15132 0 0)
(6.29201 0 0)
(6.4332 0 0)
(6.57458 0 0)
(6.71665 0 0)
(6.85986 0 0)
(7.00463 0 0)
(7.1513 0 0)
(7.3001 0 0)
(7.45122 0 0)
(7.60474 0 0)
(7.76078 0 0)
(7.91783 0 0)
(8.10891 0 0)
)
;

boundaryField
{
    inlet
    {
        type            zeroGradient;
    }
    outlet
    {
        type            pressureInletOutletVelocity;
        phi             phi.vapour;
        value           uniform (8.10891 0 0);
    }
    fixedWalls
    {
        type            slip;
    }
}


// ************************************************************************* //
