/*--------------------------------*- C++ -*----------------------------------*\
| =========                 |                                                 |
| \\      /  F ield         | OpenFOAM: The Open Source CFD Toolbox           |
|  \\    /   O peration     | Version:  2406                                  |
|   \\  /    A nd           | Website:  www.openfoam.com                      |
|    \\/     M anipulation  |                                                 |
\*---------------------------------------------------------------------------*/
FoamFile
{
    version     2.0;
    format      ascii;
    arch        "LSB;label=32;scalar=64";
    class       volScalarField;
    location    "0.6/fluidRegion";
    object      alphaRhoMagU.vapour;
}
// * * * * * * * * * * * * * * * * * * * * * * * * * * * * * * * * * * * * * //

dimensions      [1 -2 -1 0 0 0 0];

internalField   nonuniform List<scalar> 
70
(
0
0.111676
0.757557
1.87013
3.41841
5.48493
8.88697
13.1455
17.5594
21.8941
26.1212
30.2338
34.2353
38.1283
41.9143
45.5926
49.1648
52.6225
55.9316
59.1033
62.1574
65.0858
67.8932
70.5825
73.159
75.6267
77.9921
80.2627
82.4457
84.5483
86.5771
88.538
90.4367
92.2776
94.0641
95.7972
97.4751
99.0936
100.646
102.125
103.521
104.819
106.014
107.176
108.513
110.208
111.736
111.183
106.614
97.9326
90.8472
131.455
156.932
133.351
126.745
112.499
94.5738
82.0153
117.981
169.886
140.813
135.505
135.643
133.038
120.217
101.414
85.1205
102.083
173.241
144.967
)
;

boundaryField
{
    inlet
    {
        type            calculated;
        value           uniform 0;
    }
    outlet
    {
        type            calculated;
        value           uniform 144.985;
    }
    fixedWalls
    {
        type            calculated;
        value           nonuniform List<scalar> 
280
(
0
0.111676
0.757557
1.87013
3.41841
5.48493
8.88697
13.1455
17.5594
21.8941
26.1212
30.2338
34.2353
38.1283
41.9143
45.5926
49.1648
52.6225
55.9316
59.1033
62.1574
65.0858
67.8932
70.5825
73.159
75.6267
77.9921
80.2627
82.4457
84.5483
86.5771
88.538
90.4367
92.2776
94.0641
95.7972
97.4751
99.0936
100.646
102.125
103.521
104.819
106.014
107.176
108.513
110.208
111.736
111.183
106.614
97.9326
90.8472
131.455
156.932
133.351
126.745
112.499
94.5738
82.0153
117.981
169.886
140.813
135.505
135.643
133.038
120.217
101.414
85.1205
102.083
173.241
144.967
0
0.111676
0.757557
1.87013
3.41841
5.48493
8.88697
13.1455
17.5594
21.8941
26.1212
30.2338
34.2353
38.1283
41.9143
45.5926
49.1648
52.6225
55.9316
59.1033
62.1574
65.0858
67.8932
70.5825
73.159
75.6267
77.9921
80.2627
82.4457
84.5483
86.5771
88.538
90.4367
92.2776
94.0641
95.7972
97.4751
99.0936
100.646
102.125
103.521
104.819
106.014
107.176
108.513
110.208
111.736
111.183
106.614
97.9326
90.8472
131.455
156.932
133.351
126.745
112.499
94.5738
82.0153
117.981
169.886
140.813
135.505
135.643
133.038
120.217
101.414
85.1205
102.083
173.241
144.967
0
0.111676
0.757557
1.87013
3.41841
5.48493
8.88697
13.1455
17.5594
21.8941
26.1212
30.2338
34.2353
38.1283
41.9143
45.5926
49.1648
52.6225
55.9316
59.1033
62.1574
65.0858
67.8932
70.5825
73.159
75.6267
77.9921
80.2627
82.4457
84.5483
86.5771
88.538
90.4367
92.2776
94.0641
95.7972
97.4751
99.0936
100.646
102.125
103.521
104.819
106.014
107.176
108.513
110.208
111.736
111.183
106.614
97.9326
90.8472
131.455
156.932
133.351
126.745
112.499
94.5738
82.0153
117.981
169.886
140.813
135.505
135.643
133.038
120.217
101.414
85.1205
102.083
173.241
144.967
0
0.111676
0.757557
1.87013
3.41841
5.48493
8.88697
13.1455
17.5594
21.8941
26.1212
30.2338
34.2353
38.1283
41.9143
45.5926
49.1648
52.6225
55.9316
59.1033
62.1574
65.0858
67.8932
70.5825
73.159
75.6267
77.9921
80.2627
82.4457
84.5483
86.5771
88.538
90.4367
92.2776
94.0641
95.7972
97.4751
99.0936
100.646
102.125
103.521
104.819
106.014
107.176
108.513
110.208
111.736
111.183
106.614
97.9326
90.8472
131.455
156.932
133.351
126.745
112.499
94.5738
82.0153
117.981
169.886
140.813
135.505
135.643
133.038
120.217
101.414
85.1205
102.083
173.241
144.967
)
;
    }
}


// ************************************************************************* //
