/*--------------------------------*- C++ -*----------------------------------*\
| =========                 |                                                 |
| \\      /  F ield         | OpenFOAM: The Open Source CFD Toolbox           |
|  \\    /   O peration     | Version:  2406                                  |
|   \\  /    A nd           | Website:  www.openfoam.com                      |
|    \\/     M anipulation  |                                                 |
\*---------------------------------------------------------------------------*/
FoamFile
{
    version     2.0;
    format      ascii;
    arch        "LSB;label=32;scalar=64";
    class       volScalarField;
    location    "0.6/fluidRegion";
    object      dgdt.vapour;
}
// * * * * * * * * * * * * * * * * * * * * * * * * * * * * * * * * * * * * * //

dimensions      [0 0 -1 0 0 0 0];

internalField   nonuniform List<scalar> 
70
(
-4.71248e-76
0.168562
1.15208
1.88764
2.63909
3.47625
6.24053
7.15085
7.18987
7.03467
6.84578
6.63952
6.44608
6.25683
6.07446
5.89362
5.7211
5.55344
5.34718
5.11523
4.89785
4.69376
4.50177
4.32041
4.14915
3.98206
3.82384
3.6732
3.52919
3.39102
3.2581
3.12997
3.00625
2.88664
2.7709
2.65882
2.55022
2.44499
2.34303
2.24427
2.14866
2.05632
1.9671
1.88028
1.79301
1.69881
1.59553
1.49732
1.47549
1.56664
1.47953
1.41945
1.97983
1.47917
0.934687
0.703415
0.864595
0.934184
0.890141
1.22828
1.16013
1.03036
0.823668
0.556307
0.22302
0.288098
0.351799
0.341897
0.524683
0.499688
)
;

boundaryField
{
    inlet
    {
        type            calculated;
        value           uniform -4.71248e-76;
    }
    outlet
    {
        type            calculated;
        value           uniform 0.499688;
    }
    fixedWalls
    {
        type            calculated;
        value           nonuniform List<scalar> 
280
(
-4.71248e-76
0.168562
1.15208
1.88764
2.63909
3.47625
6.24053
7.15085
7.18987
7.03467
6.84578
6.63952
6.44608
6.25683
6.07446
5.89362
5.7211
5.55344
5.34718
5.11523
4.89785
4.69376
4.50177
4.32041
4.14915
3.98206
3.82384
3.6732
3.52919
3.39102
3.2581
3.12997
3.00625
2.88664
2.7709
2.65882
2.55022
2.44499
2.34303
2.24427
2.14866
2.05632
1.9671
1.88028
1.79301
1.69881
1.59553
1.49732
1.47549
1.56664
1.47953
1.41945
1.97983
1.47917
0.934687
0.703415
0.864595
0.934184
0.890141
1.22828
1.16013
1.03036
0.823668
0.556307
0.22302
0.288098
0.351799
0.341897
0.524683
0.499688
-4.71248e-76
0.168562
1.15208
1.88764
2.63909
3.47625
6.24053
7.15085
7.18987
7.03467
6.84578
6.63952
6.44608
6.25683
6.07446
5.89362
5.7211
5.55344
5.34718
5.11523
4.89785
4.69376
4.50177
4.32041
4.14915
3.98206
3.82384
3.6732
3.52919
3.39102
3.2581
3.12997
3.00625
2.88664
2.7709
2.65882
2.55022
2.44499
2.34303
2.24427
2.14866
2.05632
1.9671
1.88028
1.79301
1.69881
1.59553
1.49732
1.47549
1.56664
1.47953
1.41945
1.97983
1.47917
0.934687
0.703415
0.864595
0.934184
0.890141
1.22828
1.16013
1.03036
0.823668
0.556307
0.22302
0.288098
0.351799
0.341897
0.524683
0.499688
-4.71248e-76
0.168562
1.15208
1.88764
2.63909
3.47625
6.24053
7.15085
7.18987
7.03467
6.84578
6.63952
6.44608
6.25683
6.07446
5.89362
5.7211
5.55344
5.34718
5.11523
4.89785
4.69376
4.50177
4.32041
4.14915
3.98206
3.82384
3.6732
3.52919
3.39102
3.2581
3.12997
3.00625
2.88664
2.7709
2.65882
2.55022
2.44499
2.34303
2.24427
2.14866
2.05632
1.9671
1.88028
1.79301
1.69881
1.59553
1.49732
1.47549
1.56664
1.47953
1.41945
1.97983
1.47917
0.934687
0.703415
0.864595
0.934184
0.890141
1.22828
1.16013
1.03036
0.823668
0.556307
0.22302
0.288098
0.351799
0.341897
0.524683
0.499688
-4.71248e-76
0.168562
1.15208
1.88764
2.63909
3.47625
6.24053
7.15085
7.18987
7.03467
6.84578
6.63952
6.44608
6.25683
6.07446
5.89362
5.7211
5.55344
5.34718
5.11523
4.89785
4.69376
4.50177
4.32041
4.14915
3.98206
3.82384
3.6732
3.52919
3.39102
3.2581
3.12997
3.00625
2.88664
2.7709
2.65882
2.55022
2.44499
2.34303
2.24427
2.14866
2.05632
1.9671
1.88028
1.79301
1.69881
1.59553
1.49732
1.47549
1.56664
1.47953
1.41945
1.97983
1.47917
0.934687
0.703415
0.864595
0.934184
0.890141
1.22828
1.16013
1.03036
0.823668
0.556307
0.22302
0.288098
0.351799
0.341897
0.524683
0.499688
)
;
    }
}


// ************************************************************************* //
