/*--------------------------------*- C++ -*----------------------------------*\
| =========                 |                                                 |
| \\      /  F ield         | OpenFOAM: The Open Source CFD Toolbox           |
|  \\    /   O peration     | Version:  2406                                  |
|   \\  /    A nd           | Website:  www.openfoam.com                      |
|    \\/     M anipulation  |                                                 |
\*---------------------------------------------------------------------------*/
FoamFile
{
    version     2.0;
    format      ascii;
    arch        "LSB;label=32;scalar=64";
    class       volTensorField;
    location    "0.6/fluidRegion";
    object      Kd.liquid.structure;
}
// * * * * * * * * * * * * * * * * * * * * * * * * * * * * * * * * * * * * * //

dimensions      [1 -3 -1 0 0 0 0];

internalField   nonuniform List<tensor> 
70
(
(416.945 0 0 0 416.945 0 0 0 416.945)
(436.712 0 0 0 436.712 0 0 0 436.712)
(528.204 0 0 0 528.204 0 0 0 528.204)
(665.679 0 0 0 665.679 0 0 0 665.679)
(832.359 0 0 0 832.359 0 0 0 832.359)
(1025.87 0 0 0 1025.87 0 0 0 1025.87)
(1300.24 0 0 0 1300.24 0 0 0 1300.24)
(1603.22 0 0 0 1603.22 0 0 0 1603.22)
(1877.62 0 0 0 1877.62 0 0 0 1877.62)
(2117.44 0 0 0 2117.44 0 0 0 2117.44)
(2330.56 0 0 0 2330.56 0 0 0 2330.56)
(2523.23 0 0 0 2523.23 0 0 0 2523.23)
(2699.91 0 0 0 2699.91 0 0 0 2699.91)
(2863.77 0 0 0 2863.77 0 0 0 2863.77)
(3016.97 0 0 0 3016.97 0 0 0 3016.97)
(3161.09 0 0 0 3161.09 0 0 0 3161.09)
(3297.28 0 0 0 3297.28 0 0 0 3297.28)
(3427.1 0 0 0 3427.1 0 0 0 3427.1)
(3589.91 0 0 0 3589.91 0 0 0 3589.91)
(3820.05 0 0 0 3820.05 0 0 0 3820.05)
(4042.67 0 0 0 4042.67 0 0 0 4042.67)
(4257.16 0 0 0 4257.16 0 0 0 4257.16)
(4463.8 0 0 0 4463.8 0 0 0 4463.8)
(4662.51 0 0 0 4662.51 0 0 0 4662.51)
(4853.4 0 0 0 4853.4 0 0 0 4853.4)
(5036.46 0 0 0 5036.46 0 0 0 5036.46)
(5212.14 0 0 0 5212.14 0 0 0 5212.14)
(5381.08 0 0 0 5381.08 0 0 0 5381.08)
(5544.07 0 0 0 5544.07 0 0 0 5544.07)
(5702.03 0 0 0 5702.03 0 0 0 5702.03)
(5855.96 0 0 0 5855.96 0 0 0 5855.96)
(6006.92 0 0 0 6006.92 0 0 0 6006.92)
(6155.99 0 0 0 6155.99 0 0 0 6155.99)
(6304.27 0 0 0 6304.27 0 0 0 6304.27)
(6452.7 0 0 0 6452.7 0 0 0 6452.7)
(6601.86 0 0 0 6601.86 0 0 0 6601.86)
(6751.78 0 0 0 6751.78 0 0 0 6751.78)
(6901.71 0 0 0 6901.71 0 0 0 6901.71)
(7050.1 0 0 0 7050.1 0 0 0 7050.1)
(7194.69 0 0 0 7194.69 0 0 0 7194.69)
(7332.18 0 0 0 7332.18 0 0 0 7332.18)
(7457.06 0 0 0 7457.06 0 0 0 7457.06)
(7564.16 0 0 0 7564.16 0 0 0 7564.16)
(7665.02 0 0 0 7665.02 0 0 0 7665.02)
(7816.72 0 0 0 7816.72 0 0 0 7816.72)
(8110.75 0 0 0 8110.75 0 0 0 8110.75)
(8508.74 0 0 0 8508.74 0 0 0 8508.74)
(8459.99 0 0 0 8459.99 0 0 0 8459.99)
(7274.12 0 0 0 7274.12 0 0 0 7274.12)
(5623.95 0 0 0 5623.95 0 0 0 5623.95)
(6250.33 0 0 0 6250.33 0 0 0 6250.33)
(8558.99 0 0 0 8558.99 0 0 0 8558.99)
(126581 0 0 0 126581 0 0 0 126581)
(35898 0 0 0 35898 0 0 0 35898)
(57923.4 0 0 0 57923.4 0 0 0 57923.4)
(12627.8 0 0 0 12627.8 0 0 0 12627.8)
(5392.69 0 0 0 5392.69 0 0 0 5392.69)
(5765.59 0 0 0 5765.59 0 0 0 5765.59)
(7482.6 0 0 0 7482.6 0 0 0 7482.6)
(69494.5 0 0 0 69494.5 0 0 0 69494.5)
(11748.1 0 0 0 11748.1 0 0 0 11748.1)
(8222.23 0 0 0 8222.23 0 0 0 8222.23)
(31621.6 0 0 0 31621.6 0 0 0 31621.6)
(67106.6 0 0 0 67106.6 0 0 0 67106.6)
(18619.8 0 0 0 18619.8 0 0 0 18619.8)
(6297.2 0 0 0 6297.2 0 0 0 6297.2)
(5682.88 0 0 0 5682.88 0 0 0 5682.88)
(7033.44 0 0 0 7033.44 0 0 0 7033.44)
(23650.5 0 0 0 23650.5 0 0 0 23650.5)
(66068.3 0 0 0 66068.3 0 0 0 66068.3)
)
;

boundaryField
{
    inlet
    {
        type            zeroGradient;
    }
    outlet
    {
        type            zeroGradient;
    }
    fixedWalls
    {
        type            zeroGradient;
    }
}


// ************************************************************************* //
