/*--------------------------------*- C++ -*----------------------------------*\
| =========                 |                                                 |
| \\      /  F ield         | OpenFOAM: The Open Source CFD Toolbox           |
|  \\    /   O peration     | Version:  2406                                  |
|   \\  /    A nd           | Website:  www.openfoam.com                      |
|    \\/     M anipulation  |                                                 |
\*---------------------------------------------------------------------------*/
FoamFile
{
    version     2.0;
    format      ascii;
    arch        "LSB;label=32;scalar=64";
    class       volTensorField;
    location    "0.6/fluidRegion";
    object      KdTotU;
}
// * * * * * * * * * * * * * * * * * * * * * * * * * * * * * * * * * * * * * //

dimensions      [1 -2 -2 0 0 0 0];

internalField   nonuniform List<tensor> 
70
(
(537.618 0 0 0 537.618 0 0 0 537.618)
(565.04 0 0 0 565.04 0 0 0 565.04)
(694.954 0 0 0 694.954 0 0 0 694.954)
(903.901 0 0 0 903.901 0 0 0 903.901)
(1175.3 0 0 0 1175.3 0 0 0 1175.3)
(1516.49 0 0 0 1516.49 0 0 0 1516.49)
(2036.54 0 0 0 2036.54 0 0 0 2036.54)
(2677.2 0 0 0 2677.2 0 0 0 2677.2)
(3322.63 0 0 0 3322.63 0 0 0 3322.63)
(3938.56 0 0 0 3938.56 0 0 0 3938.56)
(4522.93 0 0 0 4522.93 0 0 0 4522.93)
(5077.08 0 0 0 5077.08 0 0 0 5077.08)
(5602.99 0 0 0 5602.99 0 0 0 5602.99)
(6102.84 0 0 0 6102.84 0 0 0 6102.84)
(6578.45 0 0 0 6578.45 0 0 0 6578.45)
(7031.49 0 0 0 7031.49 0 0 0 7031.49)
(7463.75 0 0 0 7463.75 0 0 0 7463.75)
(7876.96 0 0 0 7876.96 0 0 0 7876.96)
(8356.12 0 0 0 8356.12 0 0 0 8356.12)
(8978.98 0 0 0 8978.98 0 0 0 8978.98)
(9574.42 0 0 0 9574.42 0 0 0 9574.42)
(10144.7 0 0 0 10144.7 0 0 0 10144.7)
(10692.4 0 0 0 10692.4 0 0 0 10692.4)
(11219.1 0 0 0 11219.1 0 0 0 11219.1)
(11725.9 0 0 0 11725.9 0 0 0 11725.9)
(12212.9 0 0 0 12212.9 0 0 0 12212.9)
(12680.6 0 0 0 12680.6 0 0 0 12680.6)
(13129.4 0 0 0 13129.4 0 0 0 13129.4)
(13559.8 0 0 0 13559.8 0 0 0 13559.8)
(13972.1 0 0 0 13972.1 0 0 0 13972.1)
(14366.5 0 0 0 14366.5 0 0 0 14366.5)
(14743.6 0 0 0 14743.6 0 0 0 14743.6)
(15104 0 0 0 15104 0 0 0 15104)
(15448.8 0 0 0 15448.8 0 0 0 15448.8)
(15779.6 0 0 0 15779.6 0 0 0 15779.6)
(16098.1 0 0 0 16098.1 0 0 0 16098.1)
(16406.5 0 0 0 16406.5 0 0 0 16406.5)
(16707.1 0 0 0 16707.1 0 0 0 16707.1)
(17001.9 0 0 0 17001.9 0 0 0 17001.9)
(17293.1 0 0 0 17293.1 0 0 0 17293.1)
(17581.6 0 0 0 17581.6 0 0 0 17581.6)
(17862.5 0 0 0 17862.5 0 0 0 17862.5)
(18119.4 0 0 0 18119.4 0 0 0 18119.4)
(18343.5 0 0 0 18343.5 0 0 0 18343.5)
(18608 0 0 0 18608 0 0 0 18608)
(19164.2 0 0 0 19164.2 0 0 0 19164.2)
(20361.3 0 0 0 20361.3 0 0 0 20361.3)
(21769.8 0 0 0 21769.8 0 0 0 21769.8)
(21408.1 0 0 0 21408.1 0 0 0 21408.1)
(18868.4 0 0 0 18868.4 0 0 0 18868.4)
(20567.8 0 0 0 20567.8 0 0 0 20567.8)
(16227.4 0 0 0 16227.4 0 0 0 16227.4)
(46608 0 0 0 46608 0 0 0 46608)
(3452.93 0 0 0 3452.93 0 0 0 3452.93)
(56830.3 0 0 0 56830.3 0 0 0 56830.3)
(34953 0 0 0 34953 0 0 0 34953)
(22572 0 0 0 22572 0 0 0 22572)
(25688.1 0 0 0 25688.1 0 0 0 25688.1)
(22350.2 0 0 0 22350.2 0 0 0 22350.2)
(61080.1 0 0 0 61080.1 0 0 0 61080.1)
(280.177 0 0 0 280.177 0 0 0 280.177)
(120.845 0 0 0 120.845 0 0 0 120.845)
(2724.42 0 0 0 2724.42 0 0 0 2724.42)
(49941.1 0 0 0 49941.1 0 0 0 49941.1)
(46501.3 0 0 0 46501.3 0 0 0 46501.3)
(26243.8 0 0 0 26243.8 0 0 0 26243.8)
(26882.9 0 0 0 26882.9 0 0 0 26882.9)
(26194.8 0 0 0 26194.8 0 0 0 26194.8)
(35832 0 0 0 35832 0 0 0 35832)
(9191.03 0 0 0 9191.03 0 0 0 9191.03)
)
;

boundaryField
{
    inlet
    {
        type            zeroGradient;
    }
    outlet
    {
        type            zeroGradient;
    }
    fixedWalls
    {
        type            zeroGradient;
    }
}


// ************************************************************************* //
