/*--------------------------------*- C++ -*----------------------------------*\
| =========                 |                                                 |
| \\      /  F ield         | OpenFOAM: The Open Source CFD Toolbox           |
|  \\    /   O peration     | Version:  2406                                  |
|   \\  /    A nd           | Website:  www.openfoam.com                      |
|    \\/     M anipulation  |                                                 |
\*---------------------------------------------------------------------------*/
FoamFile
{
    version     2.0;
    format      ascii;
    arch        "LSB;label=32;scalar=64";
    class       volScalarField;
    location    "0.6/fluidRegion";
    object      p;
}
// * * * * * * * * * * * * * * * * * * * * * * * * * * * * * * * * * * * * * //

dimensions      [1 -1 -2 0 0 0 0];

internalField   nonuniform List<scalar> 
70
(
7.25473e+06
7.25471e+06
7.25468e+06
7.25461e+06
7.25453e+06
7.25441e+06
7.25427e+06
7.25406e+06
7.2538e+06
7.25352e+06
7.25322e+06
7.25289e+06
7.25255e+06
7.25219e+06
7.25181e+06
7.25142e+06
7.25101e+06
7.25058e+06
7.25014e+06
7.24968e+06
7.24919e+06
7.24869e+06
7.24816e+06
7.24762e+06
7.24705e+06
7.24646e+06
7.24586e+06
7.24524e+06
7.24459e+06
7.24393e+06
7.24326e+06
7.24256e+06
7.24185e+06
7.24112e+06
7.24038e+06
7.23963e+06
7.23886e+06
7.23809e+06
7.23731e+06
7.23653e+06
7.23574e+06
7.23496e+06
7.23417e+06
7.23337e+06
7.23256e+06
7.23177e+06
7.23105e+06
7.23046e+06
7.22993e+06
7.22912e+06
7.22715e+06
7.22229e+06
7.21986e+06
7.22103e+06
7.22152e+06
7.22152e+06
7.22123e+06
7.21968e+06
7.2145e+06
7.20929e+06
7.2105e+06
7.21126e+06
7.21133e+06
7.2113e+06
7.21128e+06
7.21111e+06
7.20994e+06
7.20569e+06
7.1984e+06
7.19911e+06
)
;

boundaryField
{
    inlet
    {
        type            calculated;
        value           uniform 7.25474e+06;
    }
    outlet
    {
        type            calculated;
        value           uniform 7.2e+06;
    }
    fixedWalls
    {
        type            calculated;
        value           nonuniform List<scalar> 
280
(
7.25473e+06
7.25471e+06
7.25468e+06
7.25461e+06
7.25453e+06
7.25441e+06
7.25427e+06
7.25406e+06
7.2538e+06
7.25352e+06
7.25322e+06
7.25289e+06
7.25255e+06
7.25219e+06
7.25181e+06
7.25142e+06
7.25101e+06
7.25058e+06
7.25014e+06
7.24968e+06
7.24919e+06
7.24869e+06
7.24816e+06
7.24762e+06
7.24705e+06
7.24646e+06
7.24586e+06
7.24524e+06
7.24459e+06
7.24393e+06
7.24326e+06
7.24256e+06
7.24185e+06
7.24112e+06
7.24038e+06
7.23963e+06
7.23886e+06
7.23809e+06
7.23731e+06
7.23653e+06
7.23574e+06
7.23496e+06
7.23417e+06
7.23337e+06
7.23256e+06
7.23177e+06
7.23105e+06
7.23046e+06
7.22993e+06
7.22912e+06
7.22715e+06
7.22229e+06
7.21986e+06
7.22103e+06
7.22152e+06
7.22152e+06
7.22123e+06
7.21968e+06
7.2145e+06
7.20929e+06
7.2105e+06
7.21126e+06
7.21133e+06
7.2113e+06
7.21128e+06
7.21111e+06
7.20994e+06
7.20569e+06
7.1984e+06
7.19911e+06
7.25473e+06
7.25471e+06
7.25468e+06
7.25461e+06
7.25453e+06
7.25441e+06
7.25427e+06
7.25406e+06
7.2538e+06
7.25352e+06
7.25322e+06
7.25289e+06
7.25255e+06
7.25219e+06
7.25181e+06
7.25142e+06
7.25101e+06
7.25058e+06
7.25014e+06
7.24968e+06
7.24919e+06
7.24869e+06
7.24816e+06
7.24762e+06
7.24705e+06
7.24646e+06
7.24586e+06
7.24524e+06
7.24459e+06
7.24393e+06
7.24326e+06
7.24256e+06
7.24185e+06
7.24112e+06
7.24038e+06
7.23963e+06
7.23886e+06
7.23809e+06
7.23731e+06
7.23653e+06
7.23574e+06
7.23496e+06
7.23417e+06
7.23337e+06
7.23256e+06
7.23177e+06
7.23105e+06
7.23046e+06
7.22993e+06
7.22912e+06
7.22715e+06
7.22229e+06
7.21986e+06
7.22103e+06
7.22152e+06
7.22152e+06
7.22123e+06
7.21968e+06
7.2145e+06
7.20929e+06
7.2105e+06
7.21126e+06
7.21133e+06
7.2113e+06
7.21128e+06
7.21111e+06
7.20994e+06
7.20569e+06
7.1984e+06
7.19911e+06
7.25473e+06
7.25471e+06
7.25468e+06
7.25461e+06
7.25453e+06
7.25441e+06
7.25427e+06
7.25406e+06
7.2538e+06
7.25352e+06
7.25322e+06
7.25289e+06
7.25255e+06
7.25219e+06
7.25181e+06
7.25142e+06
7.25101e+06
7.25058e+06
7.25014e+06
7.24968e+06
7.24919e+06
7.24869e+06
7.24816e+06
7.24762e+06
7.24705e+06
7.24646e+06
7.24586e+06
7.24524e+06
7.24459e+06
7.24393e+06
7.24326e+06
7.24256e+06
7.24185e+06
7.24112e+06
7.24038e+06
7.23963e+06
7.23886e+06
7.23809e+06
7.23731e+06
7.23653e+06
7.23574e+06
7.23496e+06
7.23417e+06
7.23337e+06
7.23256e+06
7.23177e+06
7.23105e+06
7.23046e+06
7.22993e+06
7.22912e+06
7.22715e+06
7.22229e+06
7.21986e+06
7.22103e+06
7.22152e+06
7.22152e+06
7.22123e+06
7.21968e+06
7.2145e+06
7.20929e+06
7.2105e+06
7.21126e+06
7.21133e+06
7.2113e+06
7.21128e+06
7.21111e+06
7.20994e+06
7.20569e+06
7.1984e+06
7.19911e+06
7.25473e+06
7.25471e+06
7.25468e+06
7.25461e+06
7.25453e+06
7.25441e+06
7.25427e+06
7.25406e+06
7.2538e+06
7.25352e+06
7.25322e+06
7.25289e+06
7.25255e+06
7.25219e+06
7.25181e+06
7.25142e+06
7.25101e+06
7.25058e+06
7.25014e+06
7.24968e+06
7.24919e+06
7.24869e+06
7.24816e+06
7.24762e+06
7.24705e+06
7.24646e+06
7.24586e+06
7.24524e+06
7.24459e+06
7.24393e+06
7.24326e+06
7.24256e+06
7.24185e+06
7.24112e+06
7.24038e+06
7.23963e+06
7.23886e+06
7.23809e+06
7.23731e+06
7.23653e+06
7.23574e+06
7.23496e+06
7.23417e+06
7.23337e+06
7.23256e+06
7.23177e+06
7.23105e+06
7.23046e+06
7.22993e+06
7.22912e+06
7.22715e+06
7.22229e+06
7.21986e+06
7.22103e+06
7.22152e+06
7.22152e+06
7.22123e+06
7.21968e+06
7.2145e+06
7.20929e+06
7.2105e+06
7.21126e+06
7.21133e+06
7.2113e+06
7.21128e+06
7.21111e+06
7.20994e+06
7.20569e+06
7.1984e+06
7.19911e+06
)
;
    }
}


// ************************************************************************* //
