/*--------------------------------*- C++ -*----------------------------------*\
| =========                 |                                                 |
| \\      /  F ield         | OpenFOAM: The Open Source CFD Toolbox           |
|  \\    /   O peration     | Version:  2406                                  |
|   \\  /    A nd           | Website:  www.openfoam.com                      |
|    \\/     M anipulation  |                                                 |
\*---------------------------------------------------------------------------*/
FoamFile
{
    version     2.0;
    format      ascii;
    arch        "LSB;label=32;scalar=64";
    class       volScalarField;
    location    "30/fluidRegion";
    object      dgdt.vapour;
}
// * * * * * * * * * * * * * * * * * * * * * * * * * * * * * * * * * * * * * //

dimensions      [0 0 -1 0 0 0 0];

internalField   nonuniform List<scalar> 
70
(
-3.01465e-98
-4.27396e-98
-3.8224e-98
-3.23616e-98
-2.43743e-98
-3.01852e-98
-2.32694e-98
-3.18641e-98
-2.52031e-98
-3.24323e-98
-2.14921e-98
-3.39105e-98
-2.56368e-98
-1.79247e-98
-2.71967e-98
-1.99065e-98
-5.40211e-98
-1.89551e-98
-1.5081e-98
-1.50367e-98
-5.66761e-98
-1.60147e-98
-1.23413e-98
-1.28436e-98
-1.4305e-98
-2.54912e-98
-1.07138e-98
-1.2174e-98
-2.85252e-98
-1.27216e-98
-1.72203e-98
-1.18488e-98
-2.9614e-98
-9.32931e-99
-1.29316e-98
-9.45823e-98
-1.40105e-98
-1.1259e-98
-5.88096e-99
-5.54402e-99
0.0274685
0.0614977
0.0993335
0.140109
0.183256
0.227596
0.264458
0.291473
0.321551
0.352809
0.383254
0.411018
0.434629
0.453217
0.466588
0.475141
0.479678
0.481186
0.480591
0.431798
0.406321
0.395477
0.3908
0.389139
0.389098
0.38998
0.391405
0.39316
0.395042
0.398081
)
;

boundaryField
{
    inlet
    {
        type            calculated;
        value           uniform -3.01465e-98;
    }
    outlet
    {
        type            calculated;
        value           uniform 0.398081;
    }
    fixedWalls
    {
        type            calculated;
        value           nonuniform List<scalar> 
280
(
-3.01465e-98
-4.27396e-98
-3.8224e-98
-3.23616e-98
-2.43743e-98
-3.01852e-98
-2.32694e-98
-3.18641e-98
-2.52031e-98
-3.24323e-98
-2.14921e-98
-3.39105e-98
-2.56368e-98
-1.79247e-98
-2.71967e-98
-1.99065e-98
-5.40211e-98
-1.89551e-98
-1.5081e-98
-1.50367e-98
-5.66761e-98
-1.60147e-98
-1.23413e-98
-1.28436e-98
-1.4305e-98
-2.54912e-98
-1.07138e-98
-1.2174e-98
-2.85252e-98
-1.27216e-98
-1.72203e-98
-1.18488e-98
-2.9614e-98
-9.32931e-99
-1.29316e-98
-9.45823e-98
-1.40105e-98
-1.1259e-98
-5.88096e-99
-5.54402e-99
0.0274685
0.0614977
0.0993335
0.140109
0.183256
0.227596
0.264458
0.291473
0.321551
0.352809
0.383254
0.411018
0.434629
0.453217
0.466588
0.475141
0.479678
0.481186
0.480591
0.431798
0.406321
0.395477
0.3908
0.389139
0.389098
0.38998
0.391405
0.39316
0.395042
0.398081
-3.01465e-98
-4.27396e-98
-3.8224e-98
-3.23616e-98
-2.43743e-98
-3.01852e-98
-2.32694e-98
-3.18641e-98
-2.52031e-98
-3.24323e-98
-2.14921e-98
-3.39105e-98
-2.56368e-98
-1.79247e-98
-2.71967e-98
-1.99065e-98
-5.40211e-98
-1.89551e-98
-1.5081e-98
-1.50367e-98
-5.66761e-98
-1.60147e-98
-1.23413e-98
-1.28436e-98
-1.4305e-98
-2.54912e-98
-1.07138e-98
-1.2174e-98
-2.85252e-98
-1.27216e-98
-1.72203e-98
-1.18488e-98
-2.9614e-98
-9.32931e-99
-1.29316e-98
-9.45823e-98
-1.40105e-98
-1.1259e-98
-5.88096e-99
-5.54402e-99
0.0274685
0.0614977
0.0993335
0.140109
0.183256
0.227596
0.264458
0.291473
0.321551
0.352809
0.383254
0.411018
0.434629
0.453217
0.466588
0.475141
0.479678
0.481186
0.480591
0.431798
0.406321
0.395477
0.3908
0.389139
0.389098
0.38998
0.391405
0.39316
0.395042
0.398081
-3.01465e-98
-4.27396e-98
-3.8224e-98
-3.23616e-98
-2.43743e-98
-3.01852e-98
-2.32694e-98
-3.18641e-98
-2.52031e-98
-3.24323e-98
-2.14921e-98
-3.39105e-98
-2.56368e-98
-1.79247e-98
-2.71967e-98
-1.99065e-98
-5.40211e-98
-1.89551e-98
-1.5081e-98
-1.50367e-98
-5.66761e-98
-1.60147e-98
-1.23413e-98
-1.28436e-98
-1.4305e-98
-2.54912e-98
-1.07138e-98
-1.2174e-98
-2.85252e-98
-1.27216e-98
-1.72203e-98
-1.18488e-98
-2.9614e-98
-9.32931e-99
-1.29316e-98
-9.45823e-98
-1.40105e-98
-1.1259e-98
-5.88096e-99
-5.54402e-99
0.0274685
0.0614977
0.0993335
0.140109
0.183256
0.227596
0.264458
0.291473
0.321551
0.352809
0.383254
0.411018
0.434629
0.453217
0.466588
0.475141
0.479678
0.481186
0.480591
0.431798
0.406321
0.395477
0.3908
0.389139
0.389098
0.38998
0.391405
0.39316
0.395042
0.398081
-3.01465e-98
-4.27396e-98
-3.8224e-98
-3.23616e-98
-2.43743e-98
-3.01852e-98
-2.32694e-98
-3.18641e-98
-2.52031e-98
-3.24323e-98
-2.14921e-98
-3.39105e-98
-2.56368e-98
-1.79247e-98
-2.71967e-98
-1.99065e-98
-5.40211e-98
-1.89551e-98
-1.5081e-98
-1.50367e-98
-5.66761e-98
-1.60147e-98
-1.23413e-98
-1.28436e-98
-1.4305e-98
-2.54912e-98
-1.07138e-98
-1.2174e-98
-2.85252e-98
-1.27216e-98
-1.72203e-98
-1.18488e-98
-2.9614e-98
-9.32931e-99
-1.29316e-98
-9.45823e-98
-1.40105e-98
-1.1259e-98
-5.88096e-99
-5.54402e-99
0.0274685
0.0614977
0.0993335
0.140109
0.183256
0.227596
0.264458
0.291473
0.321551
0.352809
0.383254
0.411018
0.434629
0.453217
0.466588
0.475141
0.479678
0.481186
0.480591
0.431798
0.406321
0.395477
0.3908
0.389139
0.389098
0.38998
0.391405
0.39316
0.395042
0.398081
)
;
    }
}


// ************************************************************************* //
