/*--------------------------------*- C++ -*----------------------------------*\
| =========                 |                                                 |
| \\      /  F ield         | OpenFOAM: The Open Source CFD Toolbox           |
|  \\    /   O peration     | Version:  2406                                  |
|   \\  /    A nd           | Website:  www.openfoam.com                      |
|    \\/     M anipulation  |                                                 |
\*---------------------------------------------------------------------------*/
FoamFile
{
    version     2.0;
    format      ascii;
    arch        "LSB;label=32;scalar=64";
    class       volTensorField;
    location    "30/fluidRegion";
    object      Kd.liquid.structure;
}
// * * * * * * * * * * * * * * * * * * * * * * * * * * * * * * * * * * * * * //

dimensions      [1 -3 -1 0 0 0 0];

internalField   nonuniform List<tensor> 
70
(
(418.234 0 0 0 418.234 0 0 0 418.234)
(418.008 0 0 0 418.008 0 0 0 418.008)
(417.783 0 0 0 417.783 0 0 0 417.783)
(417.56 0 0 0 417.56 0 0 0 417.56)
(417.337 0 0 0 417.337 0 0 0 417.337)
(417.116 0 0 0 417.116 0 0 0 417.116)
(416.897 0 0 0 416.897 0 0 0 416.897)
(416.678 0 0 0 416.678 0 0 0 416.678)
(416.461 0 0 0 416.461 0 0 0 416.461)
(416.245 0 0 0 416.245 0 0 0 416.245)
(416.031 0 0 0 416.031 0 0 0 416.031)
(415.817 0 0 0 415.817 0 0 0 415.817)
(415.605 0 0 0 415.605 0 0 0 415.605)
(415.394 0 0 0 415.394 0 0 0 415.394)
(415.184 0 0 0 415.184 0 0 0 415.184)
(414.975 0 0 0 414.975 0 0 0 414.975)
(414.768 0 0 0 414.768 0 0 0 414.768)
(414.561 0 0 0 414.561 0 0 0 414.561)
(414.356 0 0 0 414.356 0 0 0 414.356)
(414.152 0 0 0 414.152 0 0 0 414.152)
(413.949 0 0 0 413.949 0 0 0 413.949)
(413.747 0 0 0 413.747 0 0 0 413.747)
(413.546 0 0 0 413.546 0 0 0 413.546)
(413.346 0 0 0 413.346 0 0 0 413.346)
(413.147 0 0 0 413.147 0 0 0 413.147)
(412.949 0 0 0 412.949 0 0 0 412.949)
(412.752 0 0 0 412.752 0 0 0 412.752)
(412.556 0 0 0 412.556 0 0 0 412.556)
(412.361 0 0 0 412.361 0 0 0 412.361)
(412.167 0 0 0 412.167 0 0 0 412.167)
(411.974 0 0 0 411.974 0 0 0 411.974)
(411.781 0 0 0 411.781 0 0 0 411.781)
(411.59 0 0 0 411.59 0 0 0 411.59)
(411.4 0 0 0 411.4 0 0 0 411.4)
(411.21 0 0 0 411.21 0 0 0 411.21)
(411.021 0 0 0 411.021 0 0 0 411.021)
(410.833 0 0 0 410.833 0 0 0 410.833)
(410.646 0 0 0 410.646 0 0 0 410.646)
(410.46 0 0 0 410.46 0 0 0 410.46)
(410.274 0 0 0 410.274 0 0 0 410.274)
(417.286 0 0 0 417.286 0 0 0 417.286)
(435.084 0 0 0 435.084 0 0 0 435.084)
(459.623 0 0 0 459.623 0 0 0 459.623)
(491.975 0 0 0 491.975 0 0 0 491.975)
(531.609 0 0 0 531.609 0 0 0 531.609)
(578.045 0 0 0 578.045 0 0 0 578.045)
(629.392 0 0 0 629.392 0 0 0 629.392)
(683.581 0 0 0 683.581 0 0 0 683.581)
(740.568 0 0 0 740.568 0 0 0 740.568)
(800.351 0 0 0 800.351 0 0 0 800.351)
(862.582 0 0 0 862.582 0 0 0 862.582)
(926.656 0 0 0 926.656 0 0 0 926.656)
(991.818 0 0 0 991.818 0 0 0 991.818)
(1057.28 0 0 0 1057.28 0 0 0 1057.28)
(1122.3 0 0 0 1122.3 0 0 0 1122.3)
(1186.3 0 0 0 1186.3 0 0 0 1186.3)
(1248.84 0 0 0 1248.84 0 0 0 1248.84)
(1309.66 0 0 0 1309.66 0 0 0 1309.66)
(1368.52 0 0 0 1368.52 0 0 0 1368.52)
(1421.25 0 0 0 1421.25 0 0 0 1421.25)
(1469.1 0 0 0 1469.1 0 0 0 1469.1)
(1514.25 0 0 0 1514.25 0 0 0 1514.25)
(1557.8 0 0 0 1557.8 0 0 0 1557.8)
(1600.23 0 0 0 1600.23 0 0 0 1600.23)
(1641.81 0 0 0 1641.81 0 0 0 1641.81)
(1682.7 0 0 0 1682.7 0 0 0 1682.7)
(1722.98 0 0 0 1722.98 0 0 0 1722.98)
(1762.74 0 0 0 1762.74 0 0 0 1762.74)
(1802.03 0 0 0 1802.03 0 0 0 1802.03)
(1840.68 0 0 0 1840.68 0 0 0 1840.68)
)
;

boundaryField
{
    inlet
    {
        type            zeroGradient;
    }
    outlet
    {
        type            zeroGradient;
    }
    fixedWalls
    {
        type            zeroGradient;
    }
}


// ************************************************************************* //
