/*--------------------------------*- C++ -*----------------------------------*\
| =========                 |                                                 |
| \\      /  F ield         | OpenFOAM: The Open Source CFD Toolbox           |
|  \\    /   O peration     | Version:  2406                                  |
|   \\  /    A nd           | Website:  www.openfoam.com                      |
|    \\/     M anipulation  |                                                 |
\*---------------------------------------------------------------------------*/
FoamFile
{
    version     2.0;
    format      ascii;
    arch        "LSB;label=32;scalar=64";
    class       volTensorField;
    location    "30/fluidRegion";
    object      KdTotU;
}
// * * * * * * * * * * * * * * * * * * * * * * * * * * * * * * * * * * * * * //

dimensions      [1 -2 -2 0 0 0 0];

internalField   nonuniform List<tensor> 
70
(
(539.223 0 0 0 539.223 0 0 0 539.223)
(539.113 0 0 0 539.113 0 0 0 539.113)
(539.01 0 0 0 539.01 0 0 0 539.01)
(538.913 0 0 0 538.913 0 0 0 538.913)
(538.823 0 0 0 538.823 0 0 0 538.823)
(538.74 0 0 0 538.74 0 0 0 538.74)
(538.663 0 0 0 538.663 0 0 0 538.663)
(538.592 0 0 0 538.592 0 0 0 538.592)
(538.528 0 0 0 538.528 0 0 0 538.528)
(538.47 0 0 0 538.47 0 0 0 538.47)
(538.418 0 0 0 538.418 0 0 0 538.418)
(538.373 0 0 0 538.373 0 0 0 538.373)
(538.334 0 0 0 538.334 0 0 0 538.334)
(538.301 0 0 0 538.301 0 0 0 538.301)
(538.275 0 0 0 538.275 0 0 0 538.275)
(538.254 0 0 0 538.254 0 0 0 538.254)
(538.24 0 0 0 538.24 0 0 0 538.24)
(538.232 0 0 0 538.232 0 0 0 538.232)
(538.229 0 0 0 538.229 0 0 0 538.229)
(538.233 0 0 0 538.233 0 0 0 538.233)
(538.243 0 0 0 538.243 0 0 0 538.243)
(538.258 0 0 0 538.258 0 0 0 538.258)
(538.28 0 0 0 538.28 0 0 0 538.28)
(538.307 0 0 0 538.307 0 0 0 538.307)
(538.34 0 0 0 538.34 0 0 0 538.34)
(538.379 0 0 0 538.379 0 0 0 538.379)
(538.424 0 0 0 538.424 0 0 0 538.424)
(538.474 0 0 0 538.474 0 0 0 538.474)
(538.53 0 0 0 538.53 0 0 0 538.53)
(538.592 0 0 0 538.592 0 0 0 538.592)
(538.659 0 0 0 538.659 0 0 0 538.659)
(538.732 0 0 0 538.732 0 0 0 538.732)
(538.81 0 0 0 538.81 0 0 0 538.81)
(538.894 0 0 0 538.894 0 0 0 538.894)
(538.983 0 0 0 538.983 0 0 0 538.983)
(539.078 0 0 0 539.078 0 0 0 539.078)
(539.178 0 0 0 539.178 0 0 0 539.178)
(539.284 0 0 0 539.284 0 0 0 539.284)
(539.395 0 0 0 539.395 0 0 0 539.395)
(539.511 0 0 0 539.511 0 0 0 539.511)
(549.428 0 0 0 549.428 0 0 0 549.428)
(574.269 0 0 0 574.269 0 0 0 574.269)
(608.882 0 0 0 608.882 0 0 0 608.882)
(654.964 0 0 0 654.964 0 0 0 654.964)
(712.167 0 0 0 712.167 0 0 0 712.167)
(780.226 0 0 0 780.226 0 0 0 780.226)
(856.881 0 0 0 856.881 0 0 0 856.881)
(939.426 0 0 0 939.426 0 0 0 939.426)
(1027.98 0 0 0 1027.98 0 0 0 1027.98)
(1122.87 0 0 0 1122.87 0 0 0 1122.87)
(1223.84 0 0 0 1223.84 0 0 0 1223.84)
(1330.21 0 0 0 1330.21 0 0 0 1330.21)
(1440.96 0 0 0 1440.96 0 0 0 1440.96)
(1554.88 0 0 0 1554.88 0 0 0 1554.88)
(1670.75 0 0 0 1670.75 0 0 0 1670.75)
(1787.44 0 0 0 1787.44 0 0 0 1787.44)
(1904.07 0 0 0 1904.07 0 0 0 1904.07)
(2019.96 0 0 0 2019.96 0 0 0 2019.96)
(2134.42 0 0 0 2134.42 0 0 0 2134.42)
(2239.57 0 0 0 2239.57 0 0 0 2239.57)
(2336.61 0 0 0 2336.61 0 0 0 2336.61)
(2429.54 0 0 0 2429.54 0 0 0 2429.54)
(2520.42 0 0 0 2520.42 0 0 0 2520.42)
(2610.18 0 0 0 2610.18 0 0 0 2610.18)
(2699.3 0 0 0 2699.3 0 0 0 2699.3)
(2788.04 0 0 0 2788.04 0 0 0 2788.04)
(2876.57 0 0 0 2876.57 0 0 0 2876.57)
(2964.97 0 0 0 2964.97 0 0 0 2964.97)
(3053.44 0 0 0 3053.44 0 0 0 3053.44)
(3140.69 0 0 0 3140.69 0 0 0 3140.69)
)
;

boundaryField
{
    inlet
    {
        type            zeroGradient;
    }
    outlet
    {
        type            zeroGradient;
    }
    fixedWalls
    {
        type            zeroGradient;
    }
}


// ************************************************************************* //
