/*--------------------------------*- C++ -*----------------------------------*\
| =========                 |                                                 |
| \\      /  F ield         | OpenFOAM: The Open Source CFD Toolbox           |
|  \\    /   O peration     | Version:  2406                                  |
|   \\  /    A nd           | Website:  www.openfoam.com                      |
|    \\/     M anipulation  |                                                 |
\*---------------------------------------------------------------------------*/
FoamFile
{
    version     2.0;
    format      ascii;
    arch        "LSB;label=32;scalar=64";
    class       volScalarField;
    location    "30/fluidRegion";
    object      p;
}
// * * * * * * * * * * * * * * * * * * * * * * * * * * * * * * * * * * * * * //

dimensions      [1 -1 -2 0 0 0 0];

internalField   nonuniform List<scalar> 
70
(
7.21375e+06
7.21329e+06
7.21282e+06
7.21236e+06
7.2119e+06
7.21143e+06
7.21097e+06
7.21051e+06
7.21004e+06
7.20958e+06
7.20912e+06
7.20865e+06
7.20819e+06
7.20773e+06
7.20727e+06
7.2068e+06
7.20634e+06
7.20588e+06
7.20542e+06
7.20496e+06
7.2045e+06
7.20404e+06
7.20357e+06
7.20311e+06
7.20265e+06
7.20219e+06
7.20173e+06
7.20127e+06
7.20081e+06
7.20035e+06
7.1999e+06
7.19944e+06
7.19898e+06
7.19852e+06
7.19806e+06
7.1976e+06
7.19715e+06
7.19669e+06
7.19623e+06
7.19577e+06
7.19532e+06
7.19486e+06
7.1944e+06
7.19393e+06
7.19346e+06
7.19298e+06
7.1925e+06
7.19201e+06
7.19151e+06
7.19101e+06
7.1905e+06
7.18998e+06
7.18945e+06
7.18892e+06
7.18837e+06
7.18782e+06
7.18726e+06
7.18669e+06
7.18611e+06
7.18553e+06
7.18494e+06
7.18434e+06
7.18374e+06
7.18313e+06
7.18252e+06
7.18189e+06
7.18126e+06
7.18063e+06
7.17998e+06
7.17933e+06
)
;

boundaryField
{
    inlet
    {
        type            calculated;
        value           uniform 7.21398e+06;
    }
    outlet
    {
        type            calculated;
        value           uniform 7.179e+06;
    }
    fixedWalls
    {
        type            calculated;
        value           nonuniform List<scalar> 
280
(
7.21375e+06
7.21329e+06
7.21282e+06
7.21236e+06
7.2119e+06
7.21143e+06
7.21097e+06
7.21051e+06
7.21004e+06
7.20958e+06
7.20912e+06
7.20865e+06
7.20819e+06
7.20773e+06
7.20727e+06
7.2068e+06
7.20634e+06
7.20588e+06
7.20542e+06
7.20496e+06
7.2045e+06
7.20404e+06
7.20357e+06
7.20311e+06
7.20265e+06
7.20219e+06
7.20173e+06
7.20127e+06
7.20081e+06
7.20035e+06
7.1999e+06
7.19944e+06
7.19898e+06
7.19852e+06
7.19806e+06
7.1976e+06
7.19715e+06
7.19669e+06
7.19623e+06
7.19577e+06
7.19532e+06
7.19486e+06
7.1944e+06
7.19393e+06
7.19346e+06
7.19298e+06
7.1925e+06
7.19201e+06
7.19151e+06
7.19101e+06
7.1905e+06
7.18998e+06
7.18945e+06
7.18892e+06
7.18837e+06
7.18782e+06
7.18726e+06
7.18669e+06
7.18611e+06
7.18553e+06
7.18494e+06
7.18434e+06
7.18374e+06
7.18313e+06
7.18252e+06
7.18189e+06
7.18126e+06
7.18063e+06
7.17998e+06
7.17933e+06
7.21375e+06
7.21329e+06
7.21282e+06
7.21236e+06
7.2119e+06
7.21143e+06
7.21097e+06
7.21051e+06
7.21004e+06
7.20958e+06
7.20912e+06
7.20865e+06
7.20819e+06
7.20773e+06
7.20727e+06
7.2068e+06
7.20634e+06
7.20588e+06
7.20542e+06
7.20496e+06
7.2045e+06
7.20404e+06
7.20357e+06
7.20311e+06
7.20265e+06
7.20219e+06
7.20173e+06
7.20127e+06
7.20081e+06
7.20035e+06
7.1999e+06
7.19944e+06
7.19898e+06
7.19852e+06
7.19806e+06
7.1976e+06
7.19715e+06
7.19669e+06
7.19623e+06
7.19577e+06
7.19532e+06
7.19486e+06
7.1944e+06
7.19393e+06
7.19346e+06
7.19298e+06
7.1925e+06
7.19201e+06
7.19151e+06
7.19101e+06
7.1905e+06
7.18998e+06
7.18945e+06
7.18892e+06
7.18837e+06
7.18782e+06
7.18726e+06
7.18669e+06
7.18611e+06
7.18553e+06
7.18494e+06
7.18434e+06
7.18374e+06
7.18313e+06
7.18252e+06
7.18189e+06
7.18126e+06
7.18063e+06
7.17998e+06
7.17933e+06
7.21375e+06
7.21329e+06
7.21282e+06
7.21236e+06
7.2119e+06
7.21143e+06
7.21097e+06
7.21051e+06
7.21004e+06
7.20958e+06
7.20912e+06
7.20865e+06
7.20819e+06
7.20773e+06
7.20727e+06
7.2068e+06
7.20634e+06
7.20588e+06
7.20542e+06
7.20496e+06
7.2045e+06
7.20404e+06
7.20357e+06
7.20311e+06
7.20265e+06
7.20219e+06
7.20173e+06
7.20127e+06
7.20081e+06
7.20035e+06
7.1999e+06
7.19944e+06
7.19898e+06
7.19852e+06
7.19806e+06
7.1976e+06
7.19715e+06
7.19669e+06
7.19623e+06
7.19577e+06
7.19532e+06
7.19486e+06
7.1944e+06
7.19393e+06
7.19346e+06
7.19298e+06
7.1925e+06
7.19201e+06
7.19151e+06
7.19101e+06
7.1905e+06
7.18998e+06
7.18945e+06
7.18892e+06
7.18837e+06
7.18782e+06
7.18726e+06
7.18669e+06
7.18611e+06
7.18553e+06
7.18494e+06
7.18434e+06
7.18374e+06
7.18313e+06
7.18252e+06
7.18189e+06
7.18126e+06
7.18063e+06
7.17998e+06
7.17933e+06
7.21375e+06
7.21329e+06
7.21282e+06
7.21236e+06
7.2119e+06
7.21143e+06
7.21097e+06
7.21051e+06
7.21004e+06
7.20958e+06
7.20912e+06
7.20865e+06
7.20819e+06
7.20773e+06
7.20727e+06
7.2068e+06
7.20634e+06
7.20588e+06
7.20542e+06
7.20496e+06
7.2045e+06
7.20404e+06
7.20357e+06
7.20311e+06
7.20265e+06
7.20219e+06
7.20173e+06
7.20127e+06
7.20081e+06
7.20035e+06
7.1999e+06
7.19944e+06
7.19898e+06
7.19852e+06
7.19806e+06
7.1976e+06
7.19715e+06
7.19669e+06
7.19623e+06
7.19577e+06
7.19532e+06
7.19486e+06
7.1944e+06
7.19393e+06
7.19346e+06
7.19298e+06
7.1925e+06
7.19201e+06
7.19151e+06
7.19101e+06
7.1905e+06
7.18998e+06
7.18945e+06
7.18892e+06
7.18837e+06
7.18782e+06
7.18726e+06
7.18669e+06
7.18611e+06
7.18553e+06
7.18494e+06
7.18434e+06
7.18374e+06
7.18313e+06
7.18252e+06
7.18189e+06
7.18126e+06
7.18063e+06
7.17998e+06
7.17933e+06
)
;
    }
}


// ************************************************************************* //
