/*--------------------------------*- C++ -*----------------------------------*\
| =========                 |                                                 |
| \\      /  F ield         | OpenFOAM: The Open Source CFD Toolbox           |
|  \\    /   O peration     | Version:  2406                                  |
|   \\  /    A nd           | Website:  www.openfoam.com                      |
|    \\/     M anipulation  |                                                 |
\*---------------------------------------------------------------------------*/
FoamFile
{
    version     2.0;
    format      ascii;
    arch        "LSB;label=32;scalar=64";
    class       volScalarField;
    location    "30/fluidRegion";
    object      p_rgh;
}
// * * * * * * * * * * * * * * * * * * * * * * * * * * * * * * * * * * * * * //

dimensions      [1 -1 -2 0 0 0 0];

internalField   nonuniform List<scalar> 
70
(
7.21396e+06
7.2139e+06
7.21384e+06
7.21378e+06
7.21372e+06
7.21366e+06
7.2136e+06
7.21354e+06
7.21348e+06
7.21342e+06
7.21336e+06
7.2133e+06
7.21324e+06
7.21318e+06
7.21312e+06
7.21306e+06
7.213e+06
7.21294e+06
7.21287e+06
7.21281e+06
7.21275e+06
7.21269e+06
7.21262e+06
7.21256e+06
7.2125e+06
7.21243e+06
7.21237e+06
7.2123e+06
7.21224e+06
7.21217e+06
7.21211e+06
7.21204e+06
7.21197e+06
7.21191e+06
7.21184e+06
7.21177e+06
7.2117e+06
7.21163e+06
7.21157e+06
7.2115e+06
7.21141e+06
7.21129e+06
7.21115e+06
7.21098e+06
7.21078e+06
7.21054e+06
7.21027e+06
7.20998e+06
7.20966e+06
7.20932e+06
7.20895e+06
7.20856e+06
7.20816e+06
7.20773e+06
7.20729e+06
7.20684e+06
7.20638e+06
7.20591e+06
7.20544e+06
7.20498e+06
7.20453e+06
7.20407e+06
7.20361e+06
7.20314e+06
7.20266e+06
7.20218e+06
7.20169e+06
7.20119e+06
7.20069e+06
7.20018e+06
)
;

boundaryField
{
    inlet
    {
        type            fixedFluxPressure;
        gradient        uniform 1067.44;
        value           uniform 7.21398e+06;
    }
    outlet
    {
        type            fixedValue;
        value           uniform 7.2e+06;
    }
    fixedWalls
    {
        type            fixedFluxPressure;
        gradient        nonuniform List<scalar> 
280
(
0
0
0
0
0
0
0
0
0
0
0
1.07936e-17
0
-1.07936e-17
-1.07374e-17
1.12434e-20
3.21111e-17
-1.12434e-20
-3.20324e-17
2.12725e-17
1.06362e-17
-3.18412e-17
1.058e-17
2.11263e-17
-1.058e-17
-1.05463e-17
1.04901e-17
2.09239e-17
-1.05013e-17
-7.87036e-20
2.08115e-17
-2.08677e-17
-2.08227e-17
0
-1.03327e-17
1.12434e-20
3.37301e-20
2.05641e-17
1.02877e-17
-3.08415e-17
4.38838e-20
3.08582e-17
-1.7497e-17
-1.69793e-17
3.6802e-17
-4.24054e-17
-1.77093e-17
4.67573e-17
-8.22011e-19
-9.99411e-18
0
8.23462e-18
-2.20059e-18
-7.23672e-18
7.02643e-17
-1.83657e-18
-6.31952e-17
6.75152e-17
-1.59656e-18
-1.37216e-16
7.06213e-17
6.75838e-17
-1.36228e-16
1.3771e-18
6.74372e-17
-7.6273e-17
1.24038e-18
7.31067e-17
0
0
0
0
0
0
0
0
0
0
0
0
0
-1.07936e-17
0
1.07936e-17
1.07374e-17
-1.12434e-20
-3.21111e-17
1.12434e-20
3.20324e-17
-2.12725e-17
-1.06362e-17
3.18412e-17
-1.058e-17
-2.11263e-17
1.058e-17
1.05463e-17
-1.04901e-17
-2.09239e-17
1.05013e-17
7.87036e-20
-2.08115e-17
2.08677e-17
2.08227e-17
0
1.03327e-17
-1.12434e-20
-3.37301e-20
-2.05641e-17
-1.02877e-17
3.08415e-17
-4.38838e-20
-3.08582e-17
1.7497e-17
1.69793e-17
-3.6802e-17
4.24054e-17
1.77093e-17
-4.67573e-17
8.22011e-19
9.99411e-18
0
-8.23462e-18
2.20059e-18
7.23672e-18
-7.02643e-17
1.83657e-18
6.31952e-17
-6.75152e-17
1.59656e-18
1.37216e-16
-7.06213e-17
-6.75838e-17
1.36228e-16
-1.3771e-18
-6.74372e-17
7.6273e-17
-1.24038e-18
-7.31067e-17
0
0
0
0
0
0
0
0
0
0
0
0
0
1.07936e-17
0
-1.07936e-17
-1.07374e-17
1.12434e-20
3.21111e-17
-1.12434e-20
-3.20324e-17
2.12725e-17
1.06362e-17
-3.18412e-17
1.058e-17
2.11263e-17
-1.058e-17
-1.05463e-17
1.04901e-17
2.09239e-17
-1.05013e-17
-7.87036e-20
2.08115e-17
-2.08677e-17
-2.08227e-17
0
-1.03327e-17
1.12434e-20
3.37301e-20
2.05641e-17
1.02877e-17
-3.08415e-17
4.38838e-20
3.08582e-17
-1.7497e-17
-1.69793e-17
3.6802e-17
-4.24054e-17
-1.77093e-17
4.67573e-17
-8.22011e-19
-9.99411e-18
0
8.23462e-18
-2.20059e-18
-7.23672e-18
7.02643e-17
-1.83657e-18
-6.31952e-17
6.75152e-17
-1.59656e-18
-1.37216e-16
7.06213e-17
6.75838e-17
-1.36228e-16
1.3771e-18
6.74372e-17
-7.6273e-17
1.24038e-18
7.31067e-17
0
0
0
0
0
0
0
0
0
0
0
0
0
-1.07936e-17
0
1.07936e-17
1.07374e-17
-1.12434e-20
-3.21111e-17
1.12434e-20
3.20324e-17
-2.12725e-17
-1.06362e-17
3.18412e-17
-1.058e-17
-2.11263e-17
1.058e-17
1.05463e-17
-1.04901e-17
-2.09239e-17
1.05013e-17
7.87036e-20
-2.08115e-17
2.08677e-17
2.08227e-17
0
1.03327e-17
-1.12434e-20
-3.37301e-20
-2.05641e-17
-1.02877e-17
3.08415e-17
-4.38838e-20
-3.08582e-17
1.7497e-17
1.69793e-17
-3.6802e-17
4.24054e-17
1.77093e-17
-4.67573e-17
8.22011e-19
9.99411e-18
0
-8.23462e-18
2.20059e-18
7.23672e-18
-7.02643e-17
1.83657e-18
6.31952e-17
-6.75152e-17
1.59656e-18
1.37216e-16
-7.06213e-17
-6.75838e-17
1.36228e-16
-1.3771e-18
-6.74372e-17
7.6273e-17
-1.24038e-18
-7.31067e-17
0
0
)
;
        value           nonuniform List<scalar> 
280
(
7.21396e+06
7.2139e+06
7.21384e+06
7.21378e+06
7.21372e+06
7.21366e+06
7.2136e+06
7.21354e+06
7.21348e+06
7.21342e+06
7.21336e+06
7.2133e+06
7.21324e+06
7.21318e+06
7.21312e+06
7.21306e+06
7.213e+06
7.21294e+06
7.21287e+06
7.21281e+06
7.21275e+06
7.21269e+06
7.21262e+06
7.21256e+06
7.2125e+06
7.21243e+06
7.21237e+06
7.2123e+06
7.21224e+06
7.21217e+06
7.21211e+06
7.21204e+06
7.21197e+06
7.21191e+06
7.21184e+06
7.21177e+06
7.2117e+06
7.21163e+06
7.21157e+06
7.2115e+06
7.21141e+06
7.21129e+06
7.21115e+06
7.21098e+06
7.21078e+06
7.21054e+06
7.21027e+06
7.20998e+06
7.20966e+06
7.20932e+06
7.20895e+06
7.20856e+06
7.20816e+06
7.20773e+06
7.20729e+06
7.20684e+06
7.20638e+06
7.20591e+06
7.20544e+06
7.20498e+06
7.20453e+06
7.20407e+06
7.20361e+06
7.20314e+06
7.20266e+06
7.20218e+06
7.20169e+06
7.20119e+06
7.20069e+06
7.20018e+06
7.21396e+06
7.2139e+06
7.21384e+06
7.21378e+06
7.21372e+06
7.21366e+06
7.2136e+06
7.21354e+06
7.21348e+06
7.21342e+06
7.21336e+06
7.2133e+06
7.21324e+06
7.21318e+06
7.21312e+06
7.21306e+06
7.213e+06
7.21294e+06
7.21287e+06
7.21281e+06
7.21275e+06
7.21269e+06
7.21262e+06
7.21256e+06
7.2125e+06
7.21243e+06
7.21237e+06
7.2123e+06
7.21224e+06
7.21217e+06
7.21211e+06
7.21204e+06
7.21197e+06
7.21191e+06
7.21184e+06
7.21177e+06
7.2117e+06
7.21163e+06
7.21157e+06
7.2115e+06
7.21141e+06
7.21129e+06
7.21115e+06
7.21098e+06
7.21078e+06
7.21054e+06
7.21027e+06
7.20998e+06
7.20966e+06
7.20932e+06
7.20895e+06
7.20856e+06
7.20816e+06
7.20773e+06
7.20729e+06
7.20684e+06
7.20638e+06
7.20591e+06
7.20544e+06
7.20498e+06
7.20453e+06
7.20407e+06
7.20361e+06
7.20314e+06
7.20266e+06
7.20218e+06
7.20169e+06
7.20119e+06
7.20069e+06
7.20018e+06
7.21396e+06
7.2139e+06
7.21384e+06
7.21378e+06
7.21372e+06
7.21366e+06
7.2136e+06
7.21354e+06
7.21348e+06
7.21342e+06
7.21336e+06
7.2133e+06
7.21324e+06
7.21318e+06
7.21312e+06
7.21306e+06
7.213e+06
7.21294e+06
7.21287e+06
7.21281e+06
7.21275e+06
7.21269e+06
7.21262e+06
7.21256e+06
7.2125e+06
7.21243e+06
7.21237e+06
7.2123e+06
7.21224e+06
7.21217e+06
7.21211e+06
7.21204e+06
7.21197e+06
7.21191e+06
7.21184e+06
7.21177e+06
7.2117e+06
7.21163e+06
7.21157e+06
7.2115e+06
7.21141e+06
7.21129e+06
7.21115e+06
7.21098e+06
7.21078e+06
7.21054e+06
7.21027e+06
7.20998e+06
7.20966e+06
7.20932e+06
7.20895e+06
7.20856e+06
7.20816e+06
7.20773e+06
7.20729e+06
7.20684e+06
7.20638e+06
7.20591e+06
7.20544e+06
7.20498e+06
7.20453e+06
7.20407e+06
7.20361e+06
7.20314e+06
7.20266e+06
7.20218e+06
7.20169e+06
7.20119e+06
7.20069e+06
7.20018e+06
7.21396e+06
7.2139e+06
7.21384e+06
7.21378e+06
7.21372e+06
7.21366e+06
7.2136e+06
7.21354e+06
7.21348e+06
7.21342e+06
7.21336e+06
7.2133e+06
7.21324e+06
7.21318e+06
7.21312e+06
7.21306e+06
7.213e+06
7.21294e+06
7.21287e+06
7.21281e+06
7.21275e+06
7.21269e+06
7.21262e+06
7.21256e+06
7.2125e+06
7.21243e+06
7.21237e+06
7.2123e+06
7.21224e+06
7.21217e+06
7.21211e+06
7.21204e+06
7.21197e+06
7.21191e+06
7.21184e+06
7.21177e+06
7.2117e+06
7.21163e+06
7.21157e+06
7.2115e+06
7.21141e+06
7.21129e+06
7.21115e+06
7.21098e+06
7.21078e+06
7.21054e+06
7.21027e+06
7.20998e+06
7.20966e+06
7.20932e+06
7.20895e+06
7.20856e+06
7.20816e+06
7.20773e+06
7.20729e+06
7.20684e+06
7.20638e+06
7.20591e+06
7.20544e+06
7.20498e+06
7.20453e+06
7.20407e+06
7.20361e+06
7.20314e+06
7.20266e+06
7.20218e+06
7.20169e+06
7.20119e+06
7.20069e+06
7.20018e+06
)
;
    }
}


// ************************************************************************* //
