/*--------------------------------*- C++ -*----------------------------------*\
| =========                 |                                                 |
| \\      /  F ield         | OpenFOAM: The Open Source CFD Toolbox           |
|  \\    /   O peration     | Version:  2406                                  |
|   \\  /    A nd           | Website:  www.openfoam.com                      |
|    \\/     M anipulation  |                                                 |
\*---------------------------------------------------------------------------*/
FoamFile
{
    version     2.0;
    format      ascii;
    arch        "LSB;label=32;scalar=64";
    class       volScalarField;
    location    "0.6/fluidRegion";
    object      alphaRhoMagU.vapour;
}
// * * * * * * * * * * * * * * * * * * * * * * * * * * * * * * * * * * * * * //

dimensions      [1 -2 -1 0 0 0 0];

internalField   nonuniform List<scalar> 
75
(
0
0
0
0
0
0
0
0
0
0
0
0
0
0
0
0
0.336081
1.01751
1.98914
3.22594
4.73429
6.50073
8.52709
10.8163
13.3749
16.2105
19.3318
22.7474
26.4652
30.4911
34.846
39.9602
45.5738
51.5027
57.6677
64.0309
70.5668
77.2568
84.0861
91.0421
98.114
105.292
112.568
119.933
127.38
134.887
142.417
149.96
157.517
165.087
172.672
180.272
187.886
195.517
203.163
210.825
218.507
226.162
233.74
241.334
248.984
256.653
264.337
272.031
279.734
287.443
295.161
302.885
310.618
318.358
326.11
333.86
341.661
349.298
357.715
)
;

boundaryField
{
    inlet
    {
        type            calculated;
        value           uniform 0;
    }
    outlet
    {
        type            calculated;
        value           uniform 357.617;
    }
    fixedWalls
    {
        type            calculated;
        value           nonuniform List<scalar> 
300
(
0
0
0
0
0
0
0
0
0
0
0
0
0
0
0
0
0.336081
1.01751
1.98914
3.22594
4.73429
6.50073
8.52709
10.8163
13.3749
16.2105
19.3318
22.7474
26.4652
30.4911
34.846
39.9602
45.5738
51.5027
57.6677
64.0309
70.5668
77.2568
84.0861
91.0421
98.114
105.292
112.568
119.933
127.38
134.887
142.417
149.96
157.517
165.087
172.672
180.272
187.886
195.517
203.163
210.825
218.507
226.162
233.74
241.334
248.984
256.653
264.337
272.031
279.734
287.443
295.161
302.885
310.618
318.358
326.11
333.86
341.661
349.298
357.715
0
0
0
0
0
0
0
0
0
0
0
0
0
0
0
0
0.336081
1.01751
1.98914
3.22594
4.73429
6.50073
8.52709
10.8163
13.3749
16.2105
19.3318
22.7474
26.4652
30.4911
34.846
39.9602
45.5738
51.5027
57.6677
64.0309
70.5668
77.2568
84.0861
91.0421
98.114
105.292
112.568
119.933
127.38
134.887
142.417
149.96
157.517
165.087
172.672
180.272
187.886
195.517
203.163
210.825
218.507
226.162
233.74
241.334
248.984
256.653
264.337
272.031
279.734
287.443
295.161
302.885
310.618
318.358
326.11
333.86
341.661
349.298
357.715
0
0
0
0
0
0
0
0
0
0
0
0
0
0
0
0
0.336081
1.01751
1.98914
3.22594
4.73429
6.50073
8.52709
10.8163
13.3749
16.2105
19.3318
22.7474
26.4652
30.4911
34.846
39.9602
45.5738
51.5027
57.6677
64.0309
70.5668
77.2568
84.0861
91.0421
98.114
105.292
112.568
119.933
127.38
134.887
142.417
149.96
157.517
165.087
172.672
180.272
187.886
195.517
203.163
210.825
218.507
226.162
233.74
241.334
248.984
256.653
264.337
272.031
279.734
287.443
295.161
302.885
310.618
318.358
326.11
333.86
341.661
349.298
357.715
0
0
0
0
0
0
0
0
0
0
0
0
0
0
0
0
0.336081
1.01751
1.98914
3.22594
4.73429
6.50073
8.52709
10.8163
13.3749
16.2105
19.3318
22.7474
26.4652
30.4911
34.846
39.9602
45.5738
51.5027
57.6677
64.0309
70.5668
77.2568
84.0861
91.0421
98.114
105.292
112.568
119.933
127.38
134.887
142.417
149.96
157.517
165.087
172.672
180.272
187.886
195.517
203.163
210.825
218.507
226.162
233.74
241.334
248.984
256.653
264.337
272.031
279.734
287.443
295.161
302.885
310.618
318.358
326.11
333.86
341.661
349.298
357.715
)
;
    }
}


// ************************************************************************* //
