/*--------------------------------*- C++ -*----------------------------------*\
| =========                 |                                                 |
| \\      /  F ield         | OpenFOAM: The Open Source CFD Toolbox           |
|  \\    /   O peration     | Version:  2406                                  |
|   \\  /    A nd           | Website:  www.openfoam.com                      |
|    \\/     M anipulation  |                                                 |
\*---------------------------------------------------------------------------*/
FoamFile
{
    version     2.0;
    format      ascii;
    arch        "LSB;label=32;scalar=64";
    class       volScalarField;
    location    "0.6/fluidRegion";
    object      dgdt.vapour;
}
// * * * * * * * * * * * * * * * * * * * * * * * * * * * * * * * * * * * * * //

dimensions      [0 0 -1 0 0 0 0];

internalField   nonuniform List<scalar> 
75
(
-0
-0
-0
-0
-0
-4.56873e-41
-1.1708e-40
-2.71987e-40
-5.62941e-40
-1.09175e-39
-1.79038e-39
-2.39452e-39
-2.40797e-39
-1.47011e-39
-3.78405e-40
-6.09588e-39
0.307073
0.584612
0.84178
1.0826
1.31201
1.53785
1.76424
1.99438
2.23031
2.47333
2.72401
2.98228
3.2475
3.5185
3.79354
4.55166
4.92205
5.17414
5.37269
5.54041
5.68733
5.81863
5.93738
6.04557
6.14461
6.23558
6.31933
6.39656
6.46787
6.5164
6.529
6.54192
6.55538
6.57
6.58529
6.6012
6.61768
6.63467
6.65214
6.67004
6.68832
6.70702
6.71316
6.71185
6.71668
6.72454
6.73432
6.74554
6.7579
6.77125
6.78547
6.80048
6.81622
6.83264
6.84967
6.86736
6.88535
6.90491
7.00636
)
;

boundaryField
{
    inlet
    {
        type            calculated;
        value           uniform -0;
    }
    outlet
    {
        type            calculated;
        value           uniform 7.00636;
    }
    fixedWalls
    {
        type            calculated;
        value           nonuniform List<scalar> 
300
(
-0
-0
-0
-0
-0
-4.56873e-41
-1.1708e-40
-2.71987e-40
-5.62941e-40
-1.09175e-39
-1.79038e-39
-2.39452e-39
-2.40797e-39
-1.47011e-39
-3.78405e-40
-6.09588e-39
0.307073
0.584612
0.84178
1.0826
1.31201
1.53785
1.76424
1.99438
2.23031
2.47333
2.72401
2.98228
3.2475
3.5185
3.79354
4.55166
4.92205
5.17414
5.37269
5.54041
5.68733
5.81863
5.93738
6.04557
6.14461
6.23558
6.31933
6.39656
6.46787
6.5164
6.529
6.54192
6.55538
6.57
6.58529
6.6012
6.61768
6.63467
6.65214
6.67004
6.68832
6.70702
6.71316
6.71185
6.71668
6.72454
6.73432
6.74554
6.7579
6.77125
6.78547
6.80048
6.81622
6.83264
6.84967
6.86736
6.88535
6.90491
7.00636
-0
-0
-0
-0
-0
-4.56873e-41
-1.1708e-40
-2.71987e-40
-5.62941e-40
-1.09175e-39
-1.79038e-39
-2.39452e-39
-2.40797e-39
-1.47011e-39
-3.78405e-40
-6.09588e-39
0.307073
0.584612
0.84178
1.0826
1.31201
1.53785
1.76424
1.99438
2.23031
2.47333
2.72401
2.98228
3.2475
3.5185
3.79354
4.55166
4.92205
5.17414
5.37269
5.54041
5.68733
5.81863
5.93738
6.04557
6.14461
6.23558
6.31933
6.39656
6.46787
6.5164
6.529
6.54192
6.55538
6.57
6.58529
6.6012
6.61768
6.63467
6.65214
6.67004
6.68832
6.70702
6.71316
6.71185
6.71668
6.72454
6.73432
6.74554
6.7579
6.77125
6.78547
6.80048
6.81622
6.83264
6.84967
6.86736
6.88535
6.90491
7.00636
-0
-0
-0
-0
-0
-4.56873e-41
-1.1708e-40
-2.71987e-40
-5.62941e-40
-1.09175e-39
-1.79038e-39
-2.39452e-39
-2.40797e-39
-1.47011e-39
-3.78405e-40
-6.09588e-39
0.307073
0.584612
0.84178
1.0826
1.31201
1.53785
1.76424
1.99438
2.23031
2.47333
2.72401
2.98228
3.2475
3.5185
3.79354
4.55166
4.92205
5.17414
5.37269
5.54041
5.68733
5.81863
5.93738
6.04557
6.14461
6.23558
6.31933
6.39656
6.46787
6.5164
6.529
6.54192
6.55538
6.57
6.58529
6.6012
6.61768
6.63467
6.65214
6.67004
6.68832
6.70702
6.71316
6.71185
6.71668
6.72454
6.73432
6.74554
6.7579
6.77125
6.78547
6.80048
6.81622
6.83264
6.84967
6.86736
6.88535
6.90491
7.00636
-0
-0
-0
-0
-0
-4.56873e-41
-1.1708e-40
-2.71987e-40
-5.62941e-40
-1.09175e-39
-1.79038e-39
-2.39452e-39
-2.40797e-39
-1.47011e-39
-3.78405e-40
-6.09588e-39
0.307073
0.584612
0.84178
1.0826
1.31201
1.53785
1.76424
1.99438
2.23031
2.47333
2.72401
2.98228
3.2475
3.5185
3.79354
4.55166
4.92205
5.17414
5.37269
5.54041
5.68733
5.81863
5.93738
6.04557
6.14461
6.23558
6.31933
6.39656
6.46787
6.5164
6.529
6.54192
6.55538
6.57
6.58529
6.6012
6.61768
6.63467
6.65214
6.67004
6.68832
6.70702
6.71316
6.71185
6.71668
6.72454
6.73432
6.74554
6.7579
6.77125
6.78547
6.80048
6.81622
6.83264
6.84967
6.86736
6.88535
6.90491
7.00636
)
;
    }
}


// ************************************************************************* //
