/*--------------------------------*- C++ -*----------------------------------*\
| =========                 |                                                 |
| \\      /  F ield         | OpenFOAM: The Open Source CFD Toolbox           |
|  \\    /   O peration     | Version:  2406                                  |
|   \\  /    A nd           | Website:  www.openfoam.com                      |
|    \\/     M anipulation  |                                                 |
\*---------------------------------------------------------------------------*/
FoamFile
{
    version     2.0;
    format      ascii;
    arch        "LSB;label=32;scalar=64";
    class       volTensorField;
    location    "0.6/fluidRegion";
    object      Kd.liquid.structure;
}
// * * * * * * * * * * * * * * * * * * * * * * * * * * * * * * * * * * * * * //

dimensions      [1 -3 -1 0 0 0 0];

internalField   nonuniform List<tensor> 
75
(
(1136.21 0 0 0 1136.21 0 0 0 1136.21)
(1136.21 0 0 0 1136.21 0 0 0 1136.21)
(1136.2 0 0 0 1136.2 0 0 0 1136.2)
(1136.2 0 0 0 1136.2 0 0 0 1136.2)
(1136.2 0 0 0 1136.2 0 0 0 1136.2)
(1132.91 0 0 0 1132.91 0 0 0 1132.91)
(1131.36 0 0 0 1131.36 0 0 0 1131.36)
(1129.81 0 0 0 1129.81 0 0 0 1129.81)
(1128.25 0 0 0 1128.25 0 0 0 1128.25)
(1126.68 0 0 0 1126.68 0 0 0 1126.68)
(1125.11 0 0 0 1125.11 0 0 0 1125.11)
(1123.53 0 0 0 1123.53 0 0 0 1123.53)
(1121.94 0 0 0 1121.94 0 0 0 1121.94)
(1120.34 0 0 0 1120.34 0 0 0 1120.34)
(1118.74 0 0 0 1118.74 0 0 0 1118.74)
(1117.13 0 0 0 1117.13 0 0 0 1117.13)
(1161.35 0 0 0 1161.35 0 0 0 1161.35)
(1237.87 0 0 0 1237.87 0 0 0 1237.87)
(1336.96 0 0 0 1336.96 0 0 0 1336.96)
(1454.28 0 0 0 1454.28 0 0 0 1454.28)
(1588.71 0 0 0 1588.71 0 0 0 1588.71)
(1737.31 0 0 0 1737.31 0 0 0 1737.31)
(1898.75 0 0 0 1898.75 0 0 0 1898.75)
(2071.84 0 0 0 2071.84 0 0 0 2071.84)
(2255.7 0 0 0 2255.7 0 0 0 2255.7)
(2449.55 0 0 0 2449.55 0 0 0 2449.55)
(2652.68 0 0 0 2652.68 0 0 0 2652.68)
(2864.41 0 0 0 2864.41 0 0 0 2864.41)
(3084.05 0 0 0 3084.05 0 0 0 3084.05)
(3310.82 0 0 0 3310.82 0 0 0 3310.82)
(3544.39 0 0 0 3544.39 0 0 0 3544.39)
(3805.4 0 0 0 3805.4 0 0 0 3805.4)
(4079.49 0 0 0 4079.49 0 0 0 4079.49)
(4355.07 0 0 0 4355.07 0 0 0 4355.07)
(4628.03 0 0 0 4628.03 0 0 0 4628.03)
(4896.89 0 0 0 4896.89 0 0 0 4896.89)
(5161.01 0 0 0 5161.01 0 0 0 5161.01)
(5420.14 0 0 0 5420.14 0 0 0 5420.14)
(5674.23 0 0 0 5674.23 0 0 0 5674.23)
(5923.35 0 0 0 5923.35 0 0 0 5923.35)
(6167.61 0 0 0 6167.61 0 0 0 6167.61)
(6407.18 0 0 0 6407.18 0 0 0 6407.18)
(6642.23 0 0 0 6642.23 0 0 0 6642.23)
(6872.95 0 0 0 6872.95 0 0 0 6872.95)
(7099.52 0 0 0 7099.52 0 0 0 7099.52)
(7321.76 0 0 0 7321.76 0 0 0 7321.76)
(7539.02 0 0 0 7539.02 0 0 0 7539.02)
(7751.3 0 0 0 7751.3 0 0 0 7751.3)
(7958.96 0 0 0 7958.96 0 0 0 7958.96)
(8162.38 0 0 0 8162.38 0 0 0 8162.38)
(8361.88 0 0 0 8361.88 0 0 0 8361.88)
(8557.76 0 0 0 8557.76 0 0 0 8557.76)
(8750.29 0 0 0 8750.29 0 0 0 8750.29)
(8939.71 0 0 0 8939.71 0 0 0 8939.71)
(9126.25 0 0 0 9126.25 0 0 0 9126.25)
(9310.13 0 0 0 9310.13 0 0 0 9310.13)
(9491.38 0 0 0 9491.38 0 0 0 9491.38)
(9671.76 0 0 0 9671.76 0 0 0 9671.76)
(9938.67 0 0 0 9938.67 0 0 0 9938.67)
(10316.3 0 0 0 10316.3 0 0 0 10316.3)
(10698.7 0 0 0 10698.7 0 0 0 10698.7)
(11085.3 0 0 0 11085.3 0 0 0 11085.3)
(11476.8 0 0 0 11476.8 0 0 0 11476.8)
(11873.2 0 0 0 11873.2 0 0 0 11873.2)
(12274.8 0 0 0 12274.8 0 0 0 12274.8)
(12681.8 0 0 0 12681.8 0 0 0 12681.8)
(13094.3 0 0 0 13094.3 0 0 0 13094.3)
(13512.3 0 0 0 13512.3 0 0 0 13512.3)
(13936.1 0 0 0 13936.1 0 0 0 13936.1)
(14365.6 0 0 0 14365.6 0 0 0 14365.6)
(14801.4 0 0 0 14801.4 0 0 0 14801.4)
(15242 0 0 0 15242 0 0 0 15242)
(15694.3 0 0 0 15694.3 0 0 0 15694.3)
(16128.6 0 0 0 16128.6 0 0 0 16128.6)
(16675.9 0 0 0 16675.9 0 0 0 16675.9)
)
;

boundaryField
{
    inlet
    {
        type            zeroGradient;
    }
    outlet
    {
        type            zeroGradient;
    }
    fixedWalls
    {
        type            zeroGradient;
    }
}


// ************************************************************************* //
