/*--------------------------------*- C++ -*----------------------------------*\
| =========                 |                                                 |
| \\      /  F ield         | OpenFOAM: The Open Source CFD Toolbox           |
|  \\    /   O peration     | Version:  2406                                  |
|   \\  /    A nd           | Website:  www.openfoam.com                      |
|    \\/     M anipulation  |                                                 |
\*---------------------------------------------------------------------------*/
FoamFile
{
    version     2.0;
    format      ascii;
    arch        "LSB;label=32;scalar=64";
    class       volScalarField;
    location    "30/fluidRegion";
    object      dgdt.vapour;
}
// * * * * * * * * * * * * * * * * * * * * * * * * * * * * * * * * * * * * * //

dimensions      [0 0 -1 0 0 0 0];

internalField   nonuniform List<scalar> 
75
(
-8.94577e-24
-2.82012e-24
-1.03962e-24
-2.45978e-24
-5.22136e-25
-8.54838e-25
-8.4954e-25
-1.37235e-23
-1.8072e-24
-2.88964e-24
-2.62617e-24
-4.69798e-24
-1.18261e-22
-1.86902e-24
-6.2752e-24
-7.68166e-25
-1.77351e-22
-1.1432e-24
-1.96535e-25
-1.41371e-25
-4.56614e-24
-4.72849e-24
-6.23523e-24
-1.10269e-24
-1.91852e-24
-7.75219e-25
-2.31009e-24
-9.5743e-25
-9.04305e-25
-1.98738e-24
-3.05097e-24
-2.44337e-24
-1.77096e-24
-4.744e-24
-1.52639e-24
-3.60592e-23
-1.46748e-24
-2.96191e-24
-2.13289e-24
-2.83533e-24
-3.27745e-24
-5.83061e-24
-1.26615e-24
-2.90152e-24
-2.35889e-24
-2.87898e-24
-1.80711e-24
-8.99488e-25
-1.99043e-24
-1.88245e-24
-7.09286e-25
-3.3675e-23
-3.63451e-24
-5.51703e-24
-7.46541e-24
-4.15475e-24
-1.68632e-24
-5.99994e-24
-1.79724e-24
-7.05485e-25
-2.87621e-24
-5.66189e-24
-3.23266e-23
-5.73106e-24
-3.99844e-24
-2.00227e-24
-3.82692e-24
-1.68025e-24
-3.5279e-24
-6.61174e-24
-2.85721e-24
-2.13137e-24
-3.43818e-24
-4.3228e-24
-6.99071e-25
)
;

boundaryField
{
    inlet
    {
        type            calculated;
        value           uniform -8.94577e-24;
    }
    outlet
    {
        type            calculated;
        value           uniform -6.99071e-25;
    }
    fixedWalls
    {
        type            calculated;
        value           nonuniform List<scalar> 
300
(
-8.94577e-24
-2.82012e-24
-1.03962e-24
-2.45978e-24
-5.22136e-25
-8.54838e-25
-8.4954e-25
-1.37235e-23
-1.8072e-24
-2.88964e-24
-2.62617e-24
-4.69798e-24
-1.18261e-22
-1.86902e-24
-6.2752e-24
-7.68166e-25
-1.77351e-22
-1.1432e-24
-1.96535e-25
-1.41371e-25
-4.56614e-24
-4.72849e-24
-6.23523e-24
-1.10269e-24
-1.91852e-24
-7.75219e-25
-2.31009e-24
-9.5743e-25
-9.04305e-25
-1.98738e-24
-3.05097e-24
-2.44337e-24
-1.77096e-24
-4.744e-24
-1.52639e-24
-3.60592e-23
-1.46748e-24
-2.96191e-24
-2.13289e-24
-2.83533e-24
-3.27745e-24
-5.83061e-24
-1.26615e-24
-2.90152e-24
-2.35889e-24
-2.87898e-24
-1.80711e-24
-8.99488e-25
-1.99043e-24
-1.88245e-24
-7.09286e-25
-3.3675e-23
-3.63451e-24
-5.51703e-24
-7.46541e-24
-4.15475e-24
-1.68632e-24
-5.99994e-24
-1.79724e-24
-7.05485e-25
-2.87621e-24
-5.66189e-24
-3.23266e-23
-5.73106e-24
-3.99844e-24
-2.00227e-24
-3.82692e-24
-1.68025e-24
-3.5279e-24
-6.61174e-24
-2.85721e-24
-2.13137e-24
-3.43818e-24
-4.3228e-24
-6.99071e-25
-8.94577e-24
-2.82012e-24
-1.03962e-24
-2.45978e-24
-5.22136e-25
-8.54838e-25
-8.4954e-25
-1.37235e-23
-1.8072e-24
-2.88964e-24
-2.62617e-24
-4.69798e-24
-1.18261e-22
-1.86902e-24
-6.2752e-24
-7.68166e-25
-1.77351e-22
-1.1432e-24
-1.96535e-25
-1.41371e-25
-4.56614e-24
-4.72849e-24
-6.23523e-24
-1.10269e-24
-1.91852e-24
-7.75219e-25
-2.31009e-24
-9.5743e-25
-9.04305e-25
-1.98738e-24
-3.05097e-24
-2.44337e-24
-1.77096e-24
-4.744e-24
-1.52639e-24
-3.60592e-23
-1.46748e-24
-2.96191e-24
-2.13289e-24
-2.83533e-24
-3.27745e-24
-5.83061e-24
-1.26615e-24
-2.90152e-24
-2.35889e-24
-2.87898e-24
-1.80711e-24
-8.99488e-25
-1.99043e-24
-1.88245e-24
-7.09286e-25
-3.3675e-23
-3.63451e-24
-5.51703e-24
-7.46541e-24
-4.15475e-24
-1.68632e-24
-5.99994e-24
-1.79724e-24
-7.05485e-25
-2.87621e-24
-5.66189e-24
-3.23266e-23
-5.73106e-24
-3.99844e-24
-2.00227e-24
-3.82692e-24
-1.68025e-24
-3.5279e-24
-6.61174e-24
-2.85721e-24
-2.13137e-24
-3.43818e-24
-4.3228e-24
-6.99071e-25
-8.94577e-24
-2.82012e-24
-1.03962e-24
-2.45978e-24
-5.22136e-25
-8.54838e-25
-8.4954e-25
-1.37235e-23
-1.8072e-24
-2.88964e-24
-2.62617e-24
-4.69798e-24
-1.18261e-22
-1.86902e-24
-6.2752e-24
-7.68166e-25
-1.77351e-22
-1.1432e-24
-1.96535e-25
-1.41371e-25
-4.56614e-24
-4.72849e-24
-6.23523e-24
-1.10269e-24
-1.91852e-24
-7.75219e-25
-2.31009e-24
-9.5743e-25
-9.04305e-25
-1.98738e-24
-3.05097e-24
-2.44337e-24
-1.77096e-24
-4.744e-24
-1.52639e-24
-3.60592e-23
-1.46748e-24
-2.96191e-24
-2.13289e-24
-2.83533e-24
-3.27745e-24
-5.83061e-24
-1.26615e-24
-2.90152e-24
-2.35889e-24
-2.87898e-24
-1.80711e-24
-8.99488e-25
-1.99043e-24
-1.88245e-24
-7.09286e-25
-3.3675e-23
-3.63451e-24
-5.51703e-24
-7.46541e-24
-4.15475e-24
-1.68632e-24
-5.99994e-24
-1.79724e-24
-7.05485e-25
-2.87621e-24
-5.66189e-24
-3.23266e-23
-5.73106e-24
-3.99844e-24
-2.00227e-24
-3.82692e-24
-1.68025e-24
-3.5279e-24
-6.61174e-24
-2.85721e-24
-2.13137e-24
-3.43818e-24
-4.3228e-24
-6.99071e-25
-8.94577e-24
-2.82012e-24
-1.03962e-24
-2.45978e-24
-5.22136e-25
-8.54838e-25
-8.4954e-25
-1.37235e-23
-1.8072e-24
-2.88964e-24
-2.62617e-24
-4.69798e-24
-1.18261e-22
-1.86902e-24
-6.2752e-24
-7.68166e-25
-1.77351e-22
-1.1432e-24
-1.96535e-25
-1.41371e-25
-4.56614e-24
-4.72849e-24
-6.23523e-24
-1.10269e-24
-1.91852e-24
-7.75219e-25
-2.31009e-24
-9.5743e-25
-9.04305e-25
-1.98738e-24
-3.05097e-24
-2.44337e-24
-1.77096e-24
-4.744e-24
-1.52639e-24
-3.60592e-23
-1.46748e-24
-2.96191e-24
-2.13289e-24
-2.83533e-24
-3.27745e-24
-5.83061e-24
-1.26615e-24
-2.90152e-24
-2.35889e-24
-2.87898e-24
-1.80711e-24
-8.99488e-25
-1.99043e-24
-1.88245e-24
-7.09286e-25
-3.3675e-23
-3.63451e-24
-5.51703e-24
-7.46541e-24
-4.15475e-24
-1.68632e-24
-5.99994e-24
-1.79724e-24
-7.05485e-25
-2.87621e-24
-5.66189e-24
-3.23266e-23
-5.73106e-24
-3.99844e-24
-2.00227e-24
-3.82692e-24
-1.68025e-24
-3.5279e-24
-6.61174e-24
-2.85721e-24
-2.13137e-24
-3.43818e-24
-4.3228e-24
-6.99071e-25
)
;
    }
}


// ************************************************************************* //
