/*--------------------------------*- C++ -*----------------------------------*\
| =========                 |                                                 |
| \\      /  F ield         | OpenFOAM: The Open Source CFD Toolbox           |
|  \\    /   O peration     | Version:  2406                                  |
|   \\  /    A nd           | Website:  www.openfoam.com                      |
|    \\/     M anipulation  |                                                 |
\*---------------------------------------------------------------------------*/
FoamFile
{
    version     2.0;
    format      ascii;
    arch        "LSB;label=32;scalar=64";
    class       volTensorField;
    location    "30/fluidRegion";
    object      Kd.liquid.structure;
}
// * * * * * * * * * * * * * * * * * * * * * * * * * * * * * * * * * * * * * //

dimensions      [1 -3 -1 0 0 0 0];

internalField   nonuniform List<tensor> 
75
(
(486.965 0 0 0 486.965 0 0 0 486.965)
(486.965 0 0 0 486.965 0 0 0 486.965)
(486.965 0 0 0 486.965 0 0 0 486.965)
(486.965 0 0 0 486.965 0 0 0 486.965)
(486.965 0 0 0 486.965 0 0 0 486.965)
(486.856 0 0 0 486.856 0 0 0 486.856)
(486.768 0 0 0 486.768 0 0 0 486.768)
(486.68 0 0 0 486.68 0 0 0 486.68)
(486.592 0 0 0 486.592 0 0 0 486.592)
(486.504 0 0 0 486.504 0 0 0 486.504)
(486.417 0 0 0 486.417 0 0 0 486.417)
(486.329 0 0 0 486.329 0 0 0 486.329)
(486.242 0 0 0 486.242 0 0 0 486.242)
(486.155 0 0 0 486.155 0 0 0 486.155)
(486.068 0 0 0 486.068 0 0 0 486.068)
(485.982 0 0 0 485.982 0 0 0 485.982)
(485.895 0 0 0 485.895 0 0 0 485.895)
(485.809 0 0 0 485.809 0 0 0 485.809)
(485.723 0 0 0 485.723 0 0 0 485.723)
(485.637 0 0 0 485.637 0 0 0 485.637)
(485.551 0 0 0 485.551 0 0 0 485.551)
(485.465 0 0 0 485.465 0 0 0 485.465)
(485.38 0 0 0 485.38 0 0 0 485.38)
(485.295 0 0 0 485.295 0 0 0 485.295)
(485.21 0 0 0 485.21 0 0 0 485.21)
(485.125 0 0 0 485.125 0 0 0 485.125)
(485.04 0 0 0 485.04 0 0 0 485.04)
(484.955 0 0 0 484.955 0 0 0 484.955)
(484.871 0 0 0 484.871 0 0 0 484.871)
(484.786 0 0 0 484.786 0 0 0 484.786)
(484.702 0 0 0 484.702 0 0 0 484.702)
(484.618 0 0 0 484.618 0 0 0 484.618)
(484.535 0 0 0 484.535 0 0 0 484.535)
(484.451 0 0 0 484.451 0 0 0 484.451)
(484.367 0 0 0 484.367 0 0 0 484.367)
(484.284 0 0 0 484.284 0 0 0 484.284)
(484.201 0 0 0 484.201 0 0 0 484.201)
(484.118 0 0 0 484.118 0 0 0 484.118)
(484.035 0 0 0 484.035 0 0 0 484.035)
(483.952 0 0 0 483.952 0 0 0 483.952)
(483.87 0 0 0 483.87 0 0 0 483.87)
(483.788 0 0 0 483.788 0 0 0 483.788)
(483.705 0 0 0 483.705 0 0 0 483.705)
(483.623 0 0 0 483.623 0 0 0 483.623)
(483.541 0 0 0 483.541 0 0 0 483.541)
(483.46 0 0 0 483.46 0 0 0 483.46)
(483.378 0 0 0 483.378 0 0 0 483.378)
(483.297 0 0 0 483.297 0 0 0 483.297)
(483.215 0 0 0 483.215 0 0 0 483.215)
(483.134 0 0 0 483.134 0 0 0 483.134)
(483.053 0 0 0 483.053 0 0 0 483.053)
(482.972 0 0 0 482.972 0 0 0 482.972)
(482.892 0 0 0 482.892 0 0 0 482.892)
(482.811 0 0 0 482.811 0 0 0 482.811)
(482.731 0 0 0 482.731 0 0 0 482.731)
(482.65 0 0 0 482.65 0 0 0 482.65)
(482.57 0 0 0 482.57 0 0 0 482.57)
(482.49 0 0 0 482.49 0 0 0 482.49)
(482.411 0 0 0 482.411 0 0 0 482.411)
(482.331 0 0 0 482.331 0 0 0 482.331)
(482.251 0 0 0 482.251 0 0 0 482.251)
(482.172 0 0 0 482.172 0 0 0 482.172)
(482.093 0 0 0 482.093 0 0 0 482.093)
(482.014 0 0 0 482.014 0 0 0 482.014)
(481.935 0 0 0 481.935 0 0 0 481.935)
(481.856 0 0 0 481.856 0 0 0 481.856)
(481.777 0 0 0 481.777 0 0 0 481.777)
(481.699 0 0 0 481.699 0 0 0 481.699)
(481.62 0 0 0 481.62 0 0 0 481.62)
(481.542 0 0 0 481.542 0 0 0 481.542)
(481.464 0 0 0 481.464 0 0 0 481.464)
(481.386 0 0 0 481.386 0 0 0 481.386)
(481.308 0 0 0 481.308 0 0 0 481.308)
(481.23 0 0 0 481.23 0 0 0 481.23)
(481.153 0 0 0 481.153 0 0 0 481.153)
)
;

boundaryField
{
    inlet
    {
        type            zeroGradient;
    }
    outlet
    {
        type            zeroGradient;
    }
    fixedWalls
    {
        type            zeroGradient;
    }
}


// ************************************************************************* //
