/*--------------------------------*- C++ -*----------------------------------*\
| =========                 |                                                 |
| \\      /  F ield         | OpenFOAM: The Open Source CFD Toolbox           |
|  \\    /   O peration     | Version:  2406                                  |
|   \\  /    A nd           | Website:  www.openfoam.com                      |
|    \\/     M anipulation  |                                                 |
\*---------------------------------------------------------------------------*/
FoamFile
{
    version     2.0;
    format      ascii;
    arch        "LSB;label=32;scalar=64";
    class       volTensorField;
    location    "30/fluidRegion";
    object      KdTotU;
}
// * * * * * * * * * * * * * * * * * * * * * * * * * * * * * * * * * * * * * //

dimensions      [1 -2 -2 0 0 0 0];

internalField   nonuniform List<tensor> 
75
(
(768.231 0 0 0 768.231 0 0 0 768.231)
(768.231 0 0 0 768.231 0 0 0 768.231)
(768.231 0 0 0 768.231 0 0 0 768.231)
(768.231 0 0 0 768.231 0 0 0 768.231)
(768.23 0 0 0 768.23 0 0 0 768.23)
(768.102 0 0 0 768.102 0 0 0 768.102)
(768.048 0 0 0 768.048 0 0 0 768.048)
(767.995 0 0 0 767.995 0 0 0 767.995)
(767.943 0 0 0 767.943 0 0 0 767.943)
(767.892 0 0 0 767.892 0 0 0 767.892)
(767.842 0 0 0 767.842 0 0 0 767.842)
(767.793 0 0 0 767.793 0 0 0 767.793)
(767.745 0 0 0 767.745 0 0 0 767.745)
(767.699 0 0 0 767.699 0 0 0 767.699)
(767.653 0 0 0 767.653 0 0 0 767.653)
(767.608 0 0 0 767.608 0 0 0 767.608)
(767.565 0 0 0 767.565 0 0 0 767.565)
(767.522 0 0 0 767.522 0 0 0 767.522)
(767.481 0 0 0 767.481 0 0 0 767.481)
(767.44 0 0 0 767.44 0 0 0 767.44)
(767.401 0 0 0 767.401 0 0 0 767.401)
(767.363 0 0 0 767.363 0 0 0 767.363)
(767.325 0 0 0 767.325 0 0 0 767.325)
(767.289 0 0 0 767.289 0 0 0 767.289)
(767.254 0 0 0 767.254 0 0 0 767.254)
(767.219 0 0 0 767.219 0 0 0 767.219)
(767.186 0 0 0 767.186 0 0 0 767.186)
(767.154 0 0 0 767.154 0 0 0 767.154)
(767.123 0 0 0 767.123 0 0 0 767.123)
(767.093 0 0 0 767.093 0 0 0 767.093)
(767.063 0 0 0 767.063 0 0 0 767.063)
(767.035 0 0 0 767.035 0 0 0 767.035)
(767.008 0 0 0 767.008 0 0 0 767.008)
(766.982 0 0 0 766.982 0 0 0 766.982)
(766.957 0 0 0 766.957 0 0 0 766.957)
(766.933 0 0 0 766.933 0 0 0 766.933)
(766.91 0 0 0 766.91 0 0 0 766.91)
(766.888 0 0 0 766.888 0 0 0 766.888)
(766.867 0 0 0 766.867 0 0 0 766.867)
(766.846 0 0 0 766.846 0 0 0 766.846)
(766.827 0 0 0 766.827 0 0 0 766.827)
(766.809 0 0 0 766.809 0 0 0 766.809)
(766.792 0 0 0 766.792 0 0 0 766.792)
(766.776 0 0 0 766.776 0 0 0 766.776)
(766.761 0 0 0 766.761 0 0 0 766.761)
(766.747 0 0 0 766.747 0 0 0 766.747)
(766.733 0 0 0 766.733 0 0 0 766.733)
(766.721 0 0 0 766.721 0 0 0 766.721)
(766.71 0 0 0 766.71 0 0 0 766.71)
(766.7 0 0 0 766.7 0 0 0 766.7)
(766.69 0 0 0 766.69 0 0 0 766.69)
(766.682 0 0 0 766.682 0 0 0 766.682)
(766.675 0 0 0 766.675 0 0 0 766.675)
(766.668 0 0 0 766.668 0 0 0 766.668)
(766.663 0 0 0 766.663 0 0 0 766.663)
(766.659 0 0 0 766.659 0 0 0 766.659)
(766.655 0 0 0 766.655 0 0 0 766.655)
(766.653 0 0 0 766.653 0 0 0 766.653)
(766.651 0 0 0 766.651 0 0 0 766.651)
(766.65 0 0 0 766.65 0 0 0 766.65)
(766.651 0 0 0 766.651 0 0 0 766.651)
(766.652 0 0 0 766.652 0 0 0 766.652)
(766.655 0 0 0 766.655 0 0 0 766.655)
(766.658 0 0 0 766.658 0 0 0 766.658)
(766.662 0 0 0 766.662 0 0 0 766.662)
(766.667 0 0 0 766.667 0 0 0 766.667)
(766.673 0 0 0 766.673 0 0 0 766.673)
(766.68 0 0 0 766.68 0 0 0 766.68)
(766.688 0 0 0 766.688 0 0 0 766.688)
(766.697 0 0 0 766.697 0 0 0 766.697)
(766.707 0 0 0 766.707 0 0 0 766.707)
(766.718 0 0 0 766.718 0 0 0 766.718)
(766.729 0 0 0 766.729 0 0 0 766.729)
(766.742 0 0 0 766.742 0 0 0 766.742)
(766.756 0 0 0 766.756 0 0 0 766.756)
)
;

boundaryField
{
    inlet
    {
        type            zeroGradient;
    }
    outlet
    {
        type            zeroGradient;
    }
    fixedWalls
    {
        type            zeroGradient;
    }
}


// ************************************************************************* //
