/*--------------------------------*- C++ -*----------------------------------*\
| =========                 |                                                 |
| \\      /  F ield         | OpenFOAM: The Open Source CFD Toolbox           |
|  \\    /   O peration     | Version:  2406                                  |
|   \\  /    A nd           | Website:  www.openfoam.com                      |
|    \\/     M anipulation  |                                                 |
\*---------------------------------------------------------------------------*/
FoamFile
{
    version     2.0;
    format      ascii;
    arch        "LSB;label=32;scalar=64";
    class       volScalarField;
    location    "30/fluidRegion";
    object      p;
}
// * * * * * * * * * * * * * * * * * * * * * * * * * * * * * * * * * * * * * //

dimensions      [1 -1 -2 0 0 0 0];

internalField   nonuniform List<scalar> 
75
(
7.20252e+06
7.20249e+06
7.20246e+06
7.20243e+06
7.2024e+06
7.20236e+06
7.20233e+06
7.2023e+06
7.20226e+06
7.20223e+06
7.20219e+06
7.20216e+06
7.20213e+06
7.20209e+06
7.20206e+06
7.20202e+06
7.20199e+06
7.20196e+06
7.20192e+06
7.20189e+06
7.20185e+06
7.20182e+06
7.20179e+06
7.20175e+06
7.20172e+06
7.20168e+06
7.20165e+06
7.20162e+06
7.20158e+06
7.20155e+06
7.20151e+06
7.20148e+06
7.20145e+06
7.20141e+06
7.20138e+06
7.20134e+06
7.20131e+06
7.20128e+06
7.20124e+06
7.20121e+06
7.20117e+06
7.20114e+06
7.20111e+06
7.20107e+06
7.20104e+06
7.201e+06
7.20097e+06
7.20094e+06
7.2009e+06
7.20087e+06
7.20083e+06
7.2008e+06
7.20077e+06
7.20073e+06
7.2007e+06
7.20066e+06
7.20063e+06
7.2006e+06
7.20056e+06
7.20053e+06
7.20049e+06
7.20046e+06
7.20043e+06
7.20039e+06
7.20036e+06
7.20032e+06
7.20029e+06
7.20026e+06
7.20022e+06
7.20019e+06
7.20015e+06
7.20012e+06
7.20009e+06
7.20005e+06
7.20002e+06
)
;

boundaryField
{
    inlet
    {
        type            calculated;
        value           uniform 7.20253e+06;
    }
    outlet
    {
        type            calculated;
        value           uniform 7.2e+06;
    }
    fixedWalls
    {
        type            calculated;
        value           nonuniform List<scalar> 
300
(
7.20252e+06
7.20249e+06
7.20246e+06
7.20243e+06
7.2024e+06
7.20236e+06
7.20233e+06
7.2023e+06
7.20226e+06
7.20223e+06
7.20219e+06
7.20216e+06
7.20213e+06
7.20209e+06
7.20206e+06
7.20202e+06
7.20199e+06
7.20196e+06
7.20192e+06
7.20189e+06
7.20185e+06
7.20182e+06
7.20179e+06
7.20175e+06
7.20172e+06
7.20168e+06
7.20165e+06
7.20162e+06
7.20158e+06
7.20155e+06
7.20151e+06
7.20148e+06
7.20145e+06
7.20141e+06
7.20138e+06
7.20134e+06
7.20131e+06
7.20128e+06
7.20124e+06
7.20121e+06
7.20117e+06
7.20114e+06
7.20111e+06
7.20107e+06
7.20104e+06
7.201e+06
7.20097e+06
7.20094e+06
7.2009e+06
7.20087e+06
7.20083e+06
7.2008e+06
7.20077e+06
7.20073e+06
7.2007e+06
7.20066e+06
7.20063e+06
7.2006e+06
7.20056e+06
7.20053e+06
7.20049e+06
7.20046e+06
7.20043e+06
7.20039e+06
7.20036e+06
7.20032e+06
7.20029e+06
7.20026e+06
7.20022e+06
7.20019e+06
7.20015e+06
7.20012e+06
7.20009e+06
7.20005e+06
7.20002e+06
7.20252e+06
7.20249e+06
7.20246e+06
7.20243e+06
7.2024e+06
7.20236e+06
7.20233e+06
7.2023e+06
7.20226e+06
7.20223e+06
7.20219e+06
7.20216e+06
7.20213e+06
7.20209e+06
7.20206e+06
7.20202e+06
7.20199e+06
7.20196e+06
7.20192e+06
7.20189e+06
7.20185e+06
7.20182e+06
7.20179e+06
7.20175e+06
7.20172e+06
7.20168e+06
7.20165e+06
7.20162e+06
7.20158e+06
7.20155e+06
7.20151e+06
7.20148e+06
7.20145e+06
7.20141e+06
7.20138e+06
7.20134e+06
7.20131e+06
7.20128e+06
7.20124e+06
7.20121e+06
7.20117e+06
7.20114e+06
7.20111e+06
7.20107e+06
7.20104e+06
7.201e+06
7.20097e+06
7.20094e+06
7.2009e+06
7.20087e+06
7.20083e+06
7.2008e+06
7.20077e+06
7.20073e+06
7.2007e+06
7.20066e+06
7.20063e+06
7.2006e+06
7.20056e+06
7.20053e+06
7.20049e+06
7.20046e+06
7.20043e+06
7.20039e+06
7.20036e+06
7.20032e+06
7.20029e+06
7.20026e+06
7.20022e+06
7.20019e+06
7.20015e+06
7.20012e+06
7.20009e+06
7.20005e+06
7.20002e+06
7.20252e+06
7.20249e+06
7.20246e+06
7.20243e+06
7.2024e+06
7.20236e+06
7.20233e+06
7.2023e+06
7.20226e+06
7.20223e+06
7.20219e+06
7.20216e+06
7.20213e+06
7.20209e+06
7.20206e+06
7.20202e+06
7.20199e+06
7.20196e+06
7.20192e+06
7.20189e+06
7.20185e+06
7.20182e+06
7.20179e+06
7.20175e+06
7.20172e+06
7.20168e+06
7.20165e+06
7.20162e+06
7.20158e+06
7.20155e+06
7.20151e+06
7.20148e+06
7.20145e+06
7.20141e+06
7.20138e+06
7.20134e+06
7.20131e+06
7.20128e+06
7.20124e+06
7.20121e+06
7.20117e+06
7.20114e+06
7.20111e+06
7.20107e+06
7.20104e+06
7.201e+06
7.20097e+06
7.20094e+06
7.2009e+06
7.20087e+06
7.20083e+06
7.2008e+06
7.20077e+06
7.20073e+06
7.2007e+06
7.20066e+06
7.20063e+06
7.2006e+06
7.20056e+06
7.20053e+06
7.20049e+06
7.20046e+06
7.20043e+06
7.20039e+06
7.20036e+06
7.20032e+06
7.20029e+06
7.20026e+06
7.20022e+06
7.20019e+06
7.20015e+06
7.20012e+06
7.20009e+06
7.20005e+06
7.20002e+06
7.20252e+06
7.20249e+06
7.20246e+06
7.20243e+06
7.2024e+06
7.20236e+06
7.20233e+06
7.2023e+06
7.20226e+06
7.20223e+06
7.20219e+06
7.20216e+06
7.20213e+06
7.20209e+06
7.20206e+06
7.20202e+06
7.20199e+06
7.20196e+06
7.20192e+06
7.20189e+06
7.20185e+06
7.20182e+06
7.20179e+06
7.20175e+06
7.20172e+06
7.20168e+06
7.20165e+06
7.20162e+06
7.20158e+06
7.20155e+06
7.20151e+06
7.20148e+06
7.20145e+06
7.20141e+06
7.20138e+06
7.20134e+06
7.20131e+06
7.20128e+06
7.20124e+06
7.20121e+06
7.20117e+06
7.20114e+06
7.20111e+06
7.20107e+06
7.20104e+06
7.201e+06
7.20097e+06
7.20094e+06
7.2009e+06
7.20087e+06
7.20083e+06
7.2008e+06
7.20077e+06
7.20073e+06
7.2007e+06
7.20066e+06
7.20063e+06
7.2006e+06
7.20056e+06
7.20053e+06
7.20049e+06
7.20046e+06
7.20043e+06
7.20039e+06
7.20036e+06
7.20032e+06
7.20029e+06
7.20026e+06
7.20022e+06
7.20019e+06
7.20015e+06
7.20012e+06
7.20009e+06
7.20005e+06
7.20002e+06
)
;
    }
}


// ************************************************************************* //
