/*--------------------------------*- C++ -*----------------------------------*\
| =========                 |                                                 |
| \\      /  F ield         | OpenFOAM: The Open Source CFD Toolbox           |
|  \\    /   O peration     | Version:  2406                                  |
|   \\  /    A nd           | Website:  www.openfoam.com                      |
|    \\/     M anipulation  |                                                 |
\*---------------------------------------------------------------------------*/
FoamFile
{
    version     2.0;
    format      ascii;
    arch        "LSB;label=32;scalar=64";
    class       volTensorField;
    location    "30/fluidRegion";
    object      Kd.liquid.structure;
}
// * * * * * * * * * * * * * * * * * * * * * * * * * * * * * * * * * * * * * //

dimensions      [1 -3 -1 0 0 0 0];

internalField   nonuniform List<tensor> 
75
(
(2012.46 0 0 0 2012.46 0 0 0 2012.46)
(1981.61 0 0 0 1981.61 0 0 0 1981.61)
(1953.61 0 0 0 1953.61 0 0 0 1953.61)
(1925.03 0 0 0 1925.03 0 0 0 1925.03)
(1896.99 0 0 0 1896.99 0 0 0 1896.99)
(1866.34 0 0 0 1866.34 0 0 0 1866.34)
(1837.59 0 0 0 1837.59 0 0 0 1837.59)
(1811.21 0 0 0 1811.21 0 0 0 1811.21)
(1787.25 0 0 0 1787.25 0 0 0 1787.25)
(1766.71 0 0 0 1766.71 0 0 0 1766.71)
(1752.53 0 0 0 1752.53 0 0 0 1752.53)
(1745.92 0 0 0 1745.92 0 0 0 1745.92)
(1746.15 0 0 0 1746.15 0 0 0 1746.15)
(1752.53 0 0 0 1752.53 0 0 0 1752.53)
(1764.72 0 0 0 1764.72 0 0 0 1764.72)
(1782.33 0 0 0 1782.33 0 0 0 1782.33)
(1804.79 0 0 0 1804.79 0 0 0 1804.79)
(1831.52 0 0 0 1831.52 0 0 0 1831.52)
(1861.95 0 0 0 1861.95 0 0 0 1861.95)
(1895.54 0 0 0 1895.54 0 0 0 1895.54)
(1931.77 0 0 0 1931.77 0 0 0 1931.77)
(1970.22 0 0 0 1970.22 0 0 0 1970.22)
(2010.48 0 0 0 2010.48 0 0 0 2010.48)
(2052.22 0 0 0 2052.22 0 0 0 2052.22)
(2095.15 0 0 0 2095.15 0 0 0 2095.15)
(2138.74 0 0 0 2138.74 0 0 0 2138.74)
(2182.51 0 0 0 2182.51 0 0 0 2182.51)
(2226.27 0 0 0 2226.27 0 0 0 2226.27)
(2270.02 0 0 0 2270.02 0 0 0 2270.02)
(2313.73 0 0 0 2313.73 0 0 0 2313.73)
(2357.38 0 0 0 2357.38 0 0 0 2357.38)
(2400.99 0 0 0 2400.99 0 0 0 2400.99)
(2444.53 0 0 0 2444.53 0 0 0 2444.53)
(2488.01 0 0 0 2488.01 0 0 0 2488.01)
(2531.41 0 0 0 2531.41 0 0 0 2531.41)
(2574.74 0 0 0 2574.74 0 0 0 2574.74)
(2617.98 0 0 0 2617.98 0 0 0 2617.98)
(2661.15 0 0 0 2661.15 0 0 0 2661.15)
(2704.23 0 0 0 2704.23 0 0 0 2704.23)
(2747.22 0 0 0 2747.22 0 0 0 2747.22)
(2790.08 0 0 0 2790.08 0 0 0 2790.08)
(2833.27 0 0 0 2833.27 0 0 0 2833.27)
(2901.78 0 0 0 2901.78 0 0 0 2901.78)
(2981.87 0 0 0 2981.87 0 0 0 2981.87)
(3062.13 0 0 0 3062.13 0 0 0 3062.13)
(3142.77 0 0 0 3142.77 0 0 0 3142.77)
(3223.97 0 0 0 3223.97 0 0 0 3223.97)
(3305.81 0 0 0 3305.81 0 0 0 3305.81)
(3388.33 0 0 0 3388.33 0 0 0 3388.33)
(3471.58 0 0 0 3471.58 0 0 0 3471.58)
(3555.58 0 0 0 3555.58 0 0 0 3555.58)
(3640.34 0 0 0 3640.34 0 0 0 3640.34)
(3725.87 0 0 0 3725.87 0 0 0 3725.87)
(3812.2 0 0 0 3812.2 0 0 0 3812.2)
(3899.33 0 0 0 3899.33 0 0 0 3899.33)
(3987.25 0 0 0 3987.25 0 0 0 3987.25)
(4075.99 0 0 0 4075.99 0 0 0 4075.99)
(4165.53 0 0 0 4165.53 0 0 0 4165.53)
(4255.88 0 0 0 4255.88 0 0 0 4255.88)
(4347.05 0 0 0 4347.05 0 0 0 4347.05)
(4439.03 0 0 0 4439.03 0 0 0 4439.03)
(4531.82 0 0 0 4531.82 0 0 0 4531.82)
(4625.42 0 0 0 4625.42 0 0 0 4625.42)
(4719.84 0 0 0 4719.84 0 0 0 4719.84)
(4815.07 0 0 0 4815.07 0 0 0 4815.07)
(4911.13 0 0 0 4911.13 0 0 0 4911.13)
(5008 0 0 0 5008 0 0 0 5008)
(5105.69 0 0 0 5105.69 0 0 0 5105.69)
(5204.21 0 0 0 5204.21 0 0 0 5204.21)
(5303.51 0 0 0 5303.51 0 0 0 5303.51)
(5403.78 0 0 0 5403.78 0 0 0 5403.78)
(5504.34 0 0 0 5504.34 0 0 0 5504.34)
(5607.71 0 0 0 5607.71 0 0 0 5607.71)
(5704.31 0 0 0 5704.31 0 0 0 5704.31)
(5830.38 0 0 0 5830.38 0 0 0 5830.38)
)
;

boundaryField
{
    inlet
    {
        type            zeroGradient;
    }
    outlet
    {
        type            zeroGradient;
    }
    fixedWalls
    {
        type            zeroGradient;
    }
}


// ************************************************************************* //
