/*--------------------------------*- C++ -*----------------------------------*\
| =========                 |                                                 |
| \\      /  F ield         | OpenFOAM: The Open Source CFD Toolbox           |
|  \\    /   O peration     | Version:  2406                                  |
|   \\  /    A nd           | Website:  www.openfoam.com                      |
|    \\/     M anipulation  |                                                 |
\*---------------------------------------------------------------------------*/
FoamFile
{
    version     2.0;
    format      ascii;
    arch        "LSB;label=32;scalar=64";
    class       volScalarField;
    location    "30/fluidRegion";
    object      p_rgh;
}
// * * * * * * * * * * * * * * * * * * * * * * * * * * * * * * * * * * * * * //

dimensions      [1 -1 -2 0 0 0 0];

internalField   nonuniform List<scalar> 
75
(
7.21664e+06
7.21654e+06
7.21644e+06
7.21635e+06
7.21625e+06
7.21616e+06
7.21606e+06
7.21596e+06
7.21586e+06
7.21577e+06
7.21567e+06
7.21557e+06
7.21548e+06
7.21537e+06
7.21527e+06
7.21516e+06
7.21505e+06
7.21494e+06
7.21482e+06
7.2147e+06
7.21457e+06
7.21444e+06
7.21431e+06
7.21417e+06
7.21403e+06
7.21388e+06
7.21373e+06
7.21357e+06
7.21341e+06
7.21325e+06
7.21308e+06
7.21291e+06
7.21274e+06
7.21256e+06
7.21237e+06
7.21218e+06
7.21199e+06
7.21179e+06
7.21159e+06
7.21139e+06
7.21118e+06
7.21097e+06
7.21075e+06
7.21052e+06
7.21029e+06
7.21006e+06
7.20982e+06
7.20957e+06
7.20931e+06
7.20905e+06
7.20878e+06
7.2085e+06
7.20822e+06
7.20793e+06
7.20764e+06
7.20733e+06
7.20702e+06
7.20671e+06
7.20638e+06
7.20605e+06
7.20572e+06
7.20537e+06
7.20502e+06
7.20466e+06
7.20429e+06
7.20392e+06
7.20354e+06
7.20315e+06
7.20275e+06
7.20235e+06
7.20194e+06
7.20152e+06
7.2011e+06
7.20067e+06
7.20023e+06
)
;

boundaryField
{
    inlet
    {
        type            fixedFluxPressure;
        gradient        uniform 5228.15;
        value           uniform 7.21669e+06;
    }
    outlet
    {
        type            fixedValue;
        value           uniform 7.2e+06;
    }
    fixedWalls
    {
        type            fixedFluxPressure;
        gradient        nonuniform List<scalar> 
300
(
0
0
-3.04609e-16
-3.04909e-16
2.91021e-16
5.36214e-16
2.23964e-18
-2.4964e-16
0
0
0
0
0
0
0
0
0
0
0
0
0
0
0
0
0
0
0
0
0
0
0
0
0
0
0
0
0
0
0
0
0
0
0
0
0
0
0
0
0
5.05413e-16
-1.28764e-17
-5.01108e-16
0
0
0
0
5.05215e-16
-1.2529e-17
-5.01685e-16
0
0
0
0
0
5.09415e-16
-1.22121e-17
-5.06505e-16
0
0
0
0
5.05863e-16
-5.99116e-18
-5.0357e-16
0
0
0
3.04609e-16
3.04909e-16
-2.91021e-16
-5.36214e-16
-2.23964e-18
2.4964e-16
0
0
0
0
0
0
0
0
0
0
0
0
0
0
0
0
0
0
0
0
0
0
0
0
0
0
0
0
0
0
0
0
0
0
0
0
0
0
0
0
0
-5.05413e-16
1.28764e-17
5.01108e-16
0
0
0
0
-5.05215e-16
1.2529e-17
5.01685e-16
0
0
0
0
0
-5.09415e-16
1.22121e-17
5.06505e-16
0
0
0
0
-5.05863e-16
5.99116e-18
5.0357e-16
0
0
0
-3.04609e-16
-3.04909e-16
2.91021e-16
5.36214e-16
2.23964e-18
-2.4964e-16
0
0
0
0
0
0
0
0
0
0
0
0
0
0
0
0
0
0
0
0
0
0
0
0
0
0
0
0
0
0
0
0
0
0
0
0
0
0
0
0
0
5.05413e-16
-1.28764e-17
-5.01108e-16
0
0
0
0
5.05215e-16
-1.2529e-17
-5.01685e-16
0
0
0
0
0
5.09415e-16
-1.22121e-17
-5.06505e-16
0
0
0
0
5.05863e-16
-5.99116e-18
-5.0357e-16
0
0
0
3.04609e-16
3.04909e-16
-2.91021e-16
-5.36214e-16
-2.23964e-18
2.4964e-16
0
0
0
0
0
0
0
0
0
0
0
0
0
0
0
0
0
0
0
0
0
0
0
0
0
0
0
0
0
0
0
0
0
0
0
0
0
0
0
0
0
-5.05413e-16
1.28764e-17
5.01108e-16
0
0
0
0
-5.05215e-16
1.2529e-17
5.01685e-16
0
0
0
0
0
-5.09415e-16
1.22121e-17
5.06505e-16
0
0
0
0
-5.05863e-16
5.99116e-18
5.0357e-16
0
)
;
        value           nonuniform List<scalar> 
300
(
7.21664e+06
7.21654e+06
7.21644e+06
7.21635e+06
7.21625e+06
7.21616e+06
7.21606e+06
7.21596e+06
7.21586e+06
7.21577e+06
7.21567e+06
7.21557e+06
7.21548e+06
7.21537e+06
7.21527e+06
7.21516e+06
7.21505e+06
7.21494e+06
7.21482e+06
7.2147e+06
7.21457e+06
7.21444e+06
7.21431e+06
7.21417e+06
7.21403e+06
7.21388e+06
7.21373e+06
7.21357e+06
7.21341e+06
7.21325e+06
7.21308e+06
7.21291e+06
7.21274e+06
7.21256e+06
7.21237e+06
7.21218e+06
7.21199e+06
7.21179e+06
7.21159e+06
7.21139e+06
7.21118e+06
7.21097e+06
7.21075e+06
7.21052e+06
7.21029e+06
7.21006e+06
7.20982e+06
7.20957e+06
7.20931e+06
7.20905e+06
7.20878e+06
7.2085e+06
7.20822e+06
7.20793e+06
7.20764e+06
7.20733e+06
7.20702e+06
7.20671e+06
7.20638e+06
7.20605e+06
7.20572e+06
7.20537e+06
7.20502e+06
7.20466e+06
7.20429e+06
7.20392e+06
7.20354e+06
7.20315e+06
7.20275e+06
7.20235e+06
7.20194e+06
7.20152e+06
7.2011e+06
7.20067e+06
7.20023e+06
7.21664e+06
7.21654e+06
7.21644e+06
7.21635e+06
7.21625e+06
7.21616e+06
7.21606e+06
7.21596e+06
7.21586e+06
7.21577e+06
7.21567e+06
7.21557e+06
7.21548e+06
7.21537e+06
7.21527e+06
7.21516e+06
7.21505e+06
7.21494e+06
7.21482e+06
7.2147e+06
7.21457e+06
7.21444e+06
7.21431e+06
7.21417e+06
7.21403e+06
7.21388e+06
7.21373e+06
7.21357e+06
7.21341e+06
7.21325e+06
7.21308e+06
7.21291e+06
7.21274e+06
7.21256e+06
7.21237e+06
7.21218e+06
7.21199e+06
7.21179e+06
7.21159e+06
7.21139e+06
7.21118e+06
7.21097e+06
7.21075e+06
7.21052e+06
7.21029e+06
7.21006e+06
7.20982e+06
7.20957e+06
7.20931e+06
7.20905e+06
7.20878e+06
7.2085e+06
7.20822e+06
7.20793e+06
7.20764e+06
7.20733e+06
7.20702e+06
7.20671e+06
7.20638e+06
7.20605e+06
7.20572e+06
7.20537e+06
7.20502e+06
7.20466e+06
7.20429e+06
7.20392e+06
7.20354e+06
7.20315e+06
7.20275e+06
7.20235e+06
7.20194e+06
7.20152e+06
7.2011e+06
7.20067e+06
7.20023e+06
7.21664e+06
7.21654e+06
7.21644e+06
7.21635e+06
7.21625e+06
7.21616e+06
7.21606e+06
7.21596e+06
7.21586e+06
7.21577e+06
7.21567e+06
7.21557e+06
7.21548e+06
7.21537e+06
7.21527e+06
7.21516e+06
7.21505e+06
7.21494e+06
7.21482e+06
7.2147e+06
7.21457e+06
7.21444e+06
7.21431e+06
7.21417e+06
7.21403e+06
7.21388e+06
7.21373e+06
7.21357e+06
7.21341e+06
7.21325e+06
7.21308e+06
7.21291e+06
7.21274e+06
7.21256e+06
7.21237e+06
7.21218e+06
7.21199e+06
7.21179e+06
7.21159e+06
7.21139e+06
7.21118e+06
7.21097e+06
7.21075e+06
7.21052e+06
7.21029e+06
7.21006e+06
7.20982e+06
7.20957e+06
7.20931e+06
7.20905e+06
7.20878e+06
7.2085e+06
7.20822e+06
7.20793e+06
7.20764e+06
7.20733e+06
7.20702e+06
7.20671e+06
7.20638e+06
7.20605e+06
7.20572e+06
7.20537e+06
7.20502e+06
7.20466e+06
7.20429e+06
7.20392e+06
7.20354e+06
7.20315e+06
7.20275e+06
7.20235e+06
7.20194e+06
7.20152e+06
7.2011e+06
7.20067e+06
7.20023e+06
7.21664e+06
7.21654e+06
7.21644e+06
7.21635e+06
7.21625e+06
7.21616e+06
7.21606e+06
7.21596e+06
7.21586e+06
7.21577e+06
7.21567e+06
7.21557e+06
7.21548e+06
7.21537e+06
7.21527e+06
7.21516e+06
7.21505e+06
7.21494e+06
7.21482e+06
7.2147e+06
7.21457e+06
7.21444e+06
7.21431e+06
7.21417e+06
7.21403e+06
7.21388e+06
7.21373e+06
7.21357e+06
7.21341e+06
7.21325e+06
7.21308e+06
7.21291e+06
7.21274e+06
7.21256e+06
7.21237e+06
7.21218e+06
7.21199e+06
7.21179e+06
7.21159e+06
7.21139e+06
7.21118e+06
7.21097e+06
7.21075e+06
7.21052e+06
7.21029e+06
7.21006e+06
7.20982e+06
7.20957e+06
7.20931e+06
7.20905e+06
7.20878e+06
7.2085e+06
7.20822e+06
7.20793e+06
7.20764e+06
7.20733e+06
7.20702e+06
7.20671e+06
7.20638e+06
7.20605e+06
7.20572e+06
7.20537e+06
7.20502e+06
7.20466e+06
7.20429e+06
7.20392e+06
7.20354e+06
7.20315e+06
7.20275e+06
7.20235e+06
7.20194e+06
7.20152e+06
7.2011e+06
7.20067e+06
7.20023e+06
)
;
    }
}


// ************************************************************************* //
