/*--------------------------------*- C++ -*----------------------------------*\
| =========                 |                                                 |
| \\      /  F ield         | OpenFOAM: The Open Source CFD Toolbox           |
|  \\    /   O peration     | Version:  2406                                  |
|   \\  /    A nd           | Website:  www.openfoam.com                      |
|    \\/     M anipulation  |                                                 |
\*---------------------------------------------------------------------------*/
FoamFile
{
    version     2.0;
    format      ascii;
    arch        "LSB;label=32;scalar=64";
    class       volTensorField;
    location    "30/fluidRegion";
    object      KdTotU;
}
// * * * * * * * * * * * * * * * * * * * * * * * * * * * * * * * * * * * * * //

dimensions      [1 -2 -2 0 0 0 0];

internalField   nonuniform List<tensor> 
15
(
(1686.84 0 0 0 1686.84 0 0 0 1686.84)
(1690.69 0 0 0 1690.69 0 0 0 1690.69)
(1690.49 0 0 0 1690.49 0 0 0 1690.49)
(1693.2 0 0 0 1693.2 0 0 0 1693.2)
(1695.58 0 0 0 1695.58 0 0 0 1695.58)
(1879.62 0 0 0 1879.62 0 0 0 1879.62)
(2200.89 0 0 0 2200.89 0 0 0 2200.89)
(2514.65 0 0 0 2514.65 0 0 0 2514.65)
(2824.82 0 0 0 2824.82 0 0 0 2824.82)
(3131.87 0 0 0 3131.87 0 0 0 3131.87)
(3435.33 0 0 0 3435.33 0 0 0 3435.33)
(3789.93 0 0 0 3789.93 0 0 0 3789.93)
(4264.77 0 0 0 4264.77 0 0 0 4264.77)
(4724.41 0 0 0 4724.41 0 0 0 4724.41)
(5273.57 0 0 0 5273.57 0 0 0 5273.57)
)
;

boundaryField
{
    inlet
    {
        type            zeroGradient;
    }
    outlet
    {
        type            zeroGradient;
    }
    fixedWalls
    {
        type            zeroGradient;
    }
}


// ************************************************************************* //
