/*--------------------------------*- C++ -*----------------------------------*\
| =========                 |                                                 |
| \\      /  F ield         | OpenFOAM: The Open Source CFD Toolbox           |
|  \\    /   O peration     | Version:  2406                                  |
|   \\  /    A nd           | Website:  www.openfoam.com                      |
|    \\/     M anipulation  |                                                 |
\*---------------------------------------------------------------------------*/
FoamFile
{
    version     2.0;
    format      ascii;
    arch        "LSB;label=32;scalar=64";
    class       volScalarField;
    location    "30/fluidRegion";
    object      p;
}
// * * * * * * * * * * * * * * * * * * * * * * * * * * * * * * * * * * * * * //

dimensions      [1 -1 -2 0 0 0 0];

internalField   nonuniform List<scalar> 
15
(
7.20619e+06
7.20615e+06
7.2061e+06
7.20604e+06
7.20598e+06
7.20582e+06
7.20546e+06
7.20504e+06
7.20456e+06
7.20403e+06
7.20345e+06
7.20281e+06
7.20211e+06
7.20133e+06
7.20047e+06
)
;

boundaryField
{
    inlet
    {
        type            calculated;
        value           uniform 7.2062e+06;
    }
    outlet
    {
        type            calculated;
        value           uniform 7.2e+06;
    }
    fixedWalls
    {
        type            calculated;
        value           nonuniform List<scalar> 
60
(
7.20619e+06
7.20615e+06
7.2061e+06
7.20604e+06
7.20598e+06
7.20582e+06
7.20546e+06
7.20504e+06
7.20456e+06
7.20403e+06
7.20345e+06
7.20281e+06
7.20211e+06
7.20133e+06
7.20047e+06
7.20619e+06
7.20615e+06
7.2061e+06
7.20604e+06
7.20598e+06
7.20582e+06
7.20546e+06
7.20504e+06
7.20456e+06
7.20403e+06
7.20345e+06
7.20281e+06
7.20211e+06
7.20133e+06
7.20047e+06
7.20619e+06
7.20615e+06
7.2061e+06
7.20604e+06
7.20598e+06
7.20582e+06
7.20546e+06
7.20504e+06
7.20456e+06
7.20403e+06
7.20345e+06
7.20281e+06
7.20211e+06
7.20133e+06
7.20047e+06
7.20619e+06
7.20615e+06
7.2061e+06
7.20604e+06
7.20598e+06
7.20582e+06
7.20546e+06
7.20504e+06
7.20456e+06
7.20403e+06
7.20345e+06
7.20281e+06
7.20211e+06
7.20133e+06
7.20047e+06
)
;
    }
}


// ************************************************************************* //
