/*--------------------------------*- C++ -*----------------------------------*\
| =========                 |                                                 |
| \\      /  F ield         | OpenFOAM: The Open Source CFD Toolbox           |
|  \\    /   O peration     | Version:  2406                                  |
|   \\  /    A nd           | Website:  www.openfoam.com                      |
|    \\/     M anipulation  |                                                 |
\*---------------------------------------------------------------------------*/
FoamFile
{
    version     2.0;
    format      ascii;
    arch        "LSB;label=32;scalar=64";
    class       volScalarField;
    location    "30/fluidRegion";
    object      p_rgh;
}
// * * * * * * * * * * * * * * * * * * * * * * * * * * * * * * * * * * * * * //

dimensions      [1 -1 -2 0 0 0 0];

internalField   nonuniform List<scalar> 
15
(
7.20619e+06
7.20615e+06
7.2061e+06
7.20604e+06
7.20598e+06
7.20582e+06
7.20546e+06
7.20504e+06
7.20456e+06
7.20403e+06
7.20345e+06
7.20281e+06
7.20211e+06
7.20133e+06
7.20047e+06
)
;

boundaryField
{
    inlet
    {
        type            fixedFluxPressure;
        gradient        uniform 1275.42;
        value           uniform 7.2062e+06;
    }
    outlet
    {
        type            fixedValue;
        value           uniform 7.2e+06;
    }
    fixedWalls
    {
        type            fixedFluxPressure;
        gradient        nonuniform List<scalar> 
60
(
0
0
-1.50321e-16
-2.86819e-16
-1.93817e-17
1.08834e-16
0
0
0
-7.97509e-17
7.63018e-18
7.50273e-17
0
0
0
0
0
1.50321e-16
2.86819e-16
1.93817e-17
-1.08834e-16
0
0
0
7.97509e-17
-7.63018e-18
-7.50273e-17
0
0
0
0
0
-1.50321e-16
-2.86819e-16
-1.93817e-17
1.08834e-16
0
0
0
-7.97509e-17
7.63018e-18
7.50273e-17
0
0
0
0
0
1.50321e-16
2.86819e-16
1.93817e-17
-1.08834e-16
0
0
0
7.97509e-17
-7.63018e-18
-7.50273e-17
0
0
0
)
;
        value           nonuniform List<scalar> 
60
(
7.20619e+06
7.20615e+06
7.2061e+06
7.20604e+06
7.20598e+06
7.20582e+06
7.20546e+06
7.20504e+06
7.20456e+06
7.20403e+06
7.20345e+06
7.20281e+06
7.20211e+06
7.20133e+06
7.20047e+06
7.20619e+06
7.20615e+06
7.2061e+06
7.20604e+06
7.20598e+06
7.20582e+06
7.20546e+06
7.20504e+06
7.20456e+06
7.20403e+06
7.20345e+06
7.20281e+06
7.20211e+06
7.20133e+06
7.20047e+06
7.20619e+06
7.20615e+06
7.2061e+06
7.20604e+06
7.20598e+06
7.20582e+06
7.20546e+06
7.20504e+06
7.20456e+06
7.20403e+06
7.20345e+06
7.20281e+06
7.20211e+06
7.20133e+06
7.20047e+06
7.20619e+06
7.20615e+06
7.2061e+06
7.20604e+06
7.20598e+06
7.20582e+06
7.20546e+06
7.20504e+06
7.20456e+06
7.20403e+06
7.20345e+06
7.20281e+06
7.20211e+06
7.20133e+06
7.20047e+06
)
;
    }
}


// ************************************************************************* //
