/*--------------------------------*- C++ -*----------------------------------*\
| =========                 |                                                 |
| \\      /  F ield         | OpenFOAM: The Open Source CFD Toolbox           |
|  \\    /   O peration     | Version:  2406                                  |
|   \\  /    A nd           | Website:  www.openfoam.com                      |
|    \\/     M anipulation  |                                                 |
\*---------------------------------------------------------------------------*/
FoamFile
{
    version     2.0;
    format      ascii;
    arch        "LSB;label=32;scalar=64";
    class       volScalarField;
    location    "30/fluidRegion";
    object      alphaRhoMagU.vapour;
}
// * * * * * * * * * * * * * * * * * * * * * * * * * * * * * * * * * * * * * //

dimensions      [1 -2 -1 0 0 0 0];

internalField   nonuniform List<scalar> 
75
(
0
0
0
0
0
0
0
0.060906
0.182483
0.351891
0.568922
0.836293
1.16053
1.55041
2.01679
2.57216
3.23025
4.00526
4.91078
5.9589
7.17731
8.66493
10.3148
12.0461
13.8319
15.6621
17.5273
19.4102
21.3045
23.2097
25.1255
27.0518
28.9883
30.9346
32.8907
34.8563
36.8318
38.8186
40.8169
42.8268
44.8479
46.8801
48.9232
50.9769
53.0412
55.112
57.1634
59.1951
61.2296
63.2636
65.3002
67.3392
69.3811
71.426
73.4743
75.5261
77.5817
79.6411
81.7045
83.7719
85.8435
87.9191
89.9988
92.0827
94.1707
96.2628
98.359
100.459
102.563
104.671
106.783
108.895
111.027
113.102
115.404
)
;

boundaryField
{
    inlet
    {
        type            calculated;
        value           uniform 0;
    }
    outlet
    {
        type            calculated;
        value           uniform 115.396;
    }
    fixedWalls
    {
        type            calculated;
        value           nonuniform List<scalar> 
300
(
0
0
0
0
0
0
0
0.060906
0.182483
0.351891
0.568922
0.836293
1.16053
1.55041
2.01679
2.57216
3.23025
4.00526
4.91078
5.9589
7.17731
8.66493
10.3148
12.0461
13.8319
15.6621
17.5273
19.4102
21.3045
23.2097
25.1255
27.0518
28.9883
30.9346
32.8907
34.8563
36.8318
38.8186
40.8169
42.8268
44.8479
46.8801
48.9232
50.9769
53.0412
55.112
57.1634
59.1951
61.2296
63.2636
65.3002
67.3392
69.3811
71.426
73.4743
75.5261
77.5817
79.6411
81.7045
83.7719
85.8435
87.9191
89.9988
92.0827
94.1707
96.2628
98.359
100.459
102.563
104.671
106.783
108.895
111.027
113.102
115.404
0
0
0
0
0
0
0
0.060906
0.182483
0.351891
0.568922
0.836293
1.16053
1.55041
2.01679
2.57216
3.23025
4.00526
4.91078
5.9589
7.17731
8.66493
10.3148
12.0461
13.8319
15.6621
17.5273
19.4102
21.3045
23.2097
25.1255
27.0518
28.9883
30.9346
32.8907
34.8563
36.8318
38.8186
40.8169
42.8268
44.8479
46.8801
48.9232
50.9769
53.0412
55.112
57.1634
59.1951
61.2296
63.2636
65.3002
67.3392
69.3811
71.426
73.4743
75.5261
77.5817
79.6411
81.7045
83.7719
85.8435
87.9191
89.9988
92.0827
94.1707
96.2628
98.359
100.459
102.563
104.671
106.783
108.895
111.027
113.102
115.404
0
0
0
0
0
0
0
0.060906
0.182483
0.351891
0.568922
0.836293
1.16053
1.55041
2.01679
2.57216
3.23025
4.00526
4.91078
5.9589
7.17731
8.66493
10.3148
12.0461
13.8319
15.6621
17.5273
19.4102
21.3045
23.2097
25.1255
27.0518
28.9883
30.9346
32.8907
34.8563
36.8318
38.8186
40.8169
42.8268
44.8479
46.8801
48.9232
50.9769
53.0412
55.112
57.1634
59.1951
61.2296
63.2636
65.3002
67.3392
69.3811
71.426
73.4743
75.5261
77.5817
79.6411
81.7045
83.7719
85.8435
87.9191
89.9988
92.0827
94.1707
96.2628
98.359
100.459
102.563
104.671
106.783
108.895
111.027
113.102
115.404
0
0
0
0
0
0
0
0.060906
0.182483
0.351891
0.568922
0.836293
1.16053
1.55041
2.01679
2.57216
3.23025
4.00526
4.91078
5.9589
7.17731
8.66493
10.3148
12.0461
13.8319
15.6621
17.5273
19.4102
21.3045
23.2097
25.1255
27.0518
28.9883
30.9346
32.8907
34.8563
36.8318
38.8186
40.8169
42.8268
44.8479
46.8801
48.9232
50.9769
53.0412
55.112
57.1634
59.1951
61.2296
63.2636
65.3002
67.3392
69.3811
71.426
73.4743
75.5261
77.5817
79.6411
81.7045
83.7719
85.8435
87.9191
89.9988
92.0827
94.1707
96.2628
98.359
100.459
102.563
104.671
106.783
108.895
111.027
113.102
115.404
)
;
    }
}


// ************************************************************************* //
