/*--------------------------------*- C++ -*----------------------------------*\
| =========                 |                                                 |
| \\      /  F ield         | OpenFOAM: The Open Source CFD Toolbox           |
|  \\    /   O peration     | Version:  2406                                  |
|   \\  /    A nd           | Website:  www.openfoam.com                      |
|    \\/     M anipulation  |                                                 |
\*---------------------------------------------------------------------------*/
FoamFile
{
    version     2.0;
    format      ascii;
    arch        "LSB;label=32;scalar=64";
    class       volScalarField;
    location    "30/fluidRegion";
    object      dgdt.vapour;
}
// * * * * * * * * * * * * * * * * * * * * * * * * * * * * * * * * * * * * * //

dimensions      [0 0 -1 0 0 0 0];

internalField   nonuniform List<scalar> 
75
(
-0
-0
-0
-0
-0
-0
-0
0.107276
0.198633
0.277813
0.354853
0.438095
0.532486
0.642004
0.769988
0.919249
1.09178
1.28824
1.50739
1.74544
2.02935
2.53519
2.72639
2.84272
2.92863
2.99806
3.05233
3.07062
3.08773
3.1041
3.11998
3.13548
3.15066
3.16556
3.18018
3.19452
3.21012
3.22845
3.24669
3.26476
3.2826
3.30015
3.31737
3.33421
3.35065
3.36664
3.36078
3.32265
3.31062
3.3071
3.30759
3.31033
3.31451
3.31965
3.32548
3.3318
3.33849
3.34546
3.35264
3.35998
3.36743
3.37497
3.38256
3.39018
3.39781
3.40542
3.413
3.42052
3.42798
3.43537
3.44265
3.44992
3.45679
3.46461
3.48191
)
;

boundaryField
{
    inlet
    {
        type            calculated;
        value           uniform -0;
    }
    outlet
    {
        type            calculated;
        value           uniform 3.48191;
    }
    fixedWalls
    {
        type            calculated;
        value           nonuniform List<scalar> 
300
(
-0
-0
-0
-0
-0
-0
-0
0.107276
0.198633
0.277813
0.354853
0.438095
0.532486
0.642004
0.769988
0.919249
1.09178
1.28824
1.50739
1.74544
2.02935
2.53519
2.72639
2.84272
2.92863
2.99806
3.05233
3.07062
3.08773
3.1041
3.11998
3.13548
3.15066
3.16556
3.18018
3.19452
3.21012
3.22845
3.24669
3.26476
3.2826
3.30015
3.31737
3.33421
3.35065
3.36664
3.36078
3.32265
3.31062
3.3071
3.30759
3.31033
3.31451
3.31965
3.32548
3.3318
3.33849
3.34546
3.35264
3.35998
3.36743
3.37497
3.38256
3.39018
3.39781
3.40542
3.413
3.42052
3.42798
3.43537
3.44265
3.44992
3.45679
3.46461
3.48191
-0
-0
-0
-0
-0
-0
-0
0.107276
0.198633
0.277813
0.354853
0.438095
0.532486
0.642004
0.769988
0.919249
1.09178
1.28824
1.50739
1.74544
2.02935
2.53519
2.72639
2.84272
2.92863
2.99806
3.05233
3.07062
3.08773
3.1041
3.11998
3.13548
3.15066
3.16556
3.18018
3.19452
3.21012
3.22845
3.24669
3.26476
3.2826
3.30015
3.31737
3.33421
3.35065
3.36664
3.36078
3.32265
3.31062
3.3071
3.30759
3.31033
3.31451
3.31965
3.32548
3.3318
3.33849
3.34546
3.35264
3.35998
3.36743
3.37497
3.38256
3.39018
3.39781
3.40542
3.413
3.42052
3.42798
3.43537
3.44265
3.44992
3.45679
3.46461
3.48191
-0
-0
-0
-0
-0
-0
-0
0.107276
0.198633
0.277813
0.354853
0.438095
0.532486
0.642004
0.769988
0.919249
1.09178
1.28824
1.50739
1.74544
2.02935
2.53519
2.72639
2.84272
2.92863
2.99806
3.05233
3.07062
3.08773
3.1041
3.11998
3.13548
3.15066
3.16556
3.18018
3.19452
3.21012
3.22845
3.24669
3.26476
3.2826
3.30015
3.31737
3.33421
3.35065
3.36664
3.36078
3.32265
3.31062
3.3071
3.30759
3.31033
3.31451
3.31965
3.32548
3.3318
3.33849
3.34546
3.35264
3.35998
3.36743
3.37497
3.38256
3.39018
3.39781
3.40542
3.413
3.42052
3.42798
3.43537
3.44265
3.44992
3.45679
3.46461
3.48191
-0
-0
-0
-0
-0
-0
-0
0.107276
0.198633
0.277813
0.354853
0.438095
0.532486
0.642004
0.769988
0.919249
1.09178
1.28824
1.50739
1.74544
2.02935
2.53519
2.72639
2.84272
2.92863
2.99806
3.05233
3.07062
3.08773
3.1041
3.11998
3.13548
3.15066
3.16556
3.18018
3.19452
3.21012
3.22845
3.24669
3.26476
3.2826
3.30015
3.31737
3.33421
3.35065
3.36664
3.36078
3.32265
3.31062
3.3071
3.30759
3.31033
3.31451
3.31965
3.32548
3.3318
3.33849
3.34546
3.35264
3.35998
3.36743
3.37497
3.38256
3.39018
3.39781
3.40542
3.413
3.42052
3.42798
3.43537
3.44265
3.44992
3.45679
3.46461
3.48191
)
;
    }
}


// ************************************************************************* //
