/*--------------------------------*- C++ -*----------------------------------*\
| =========                 |                                                 |
| \\      /  F ield         | OpenFOAM: The Open Source CFD Toolbox           |
|  \\    /   O peration     | Version:  2406                                  |
|   \\  /    A nd           | Website:  www.openfoam.com                      |
|    \\/     M anipulation  |                                                 |
\*---------------------------------------------------------------------------*/
FoamFile
{
    version     2.0;
    format      ascii;
    arch        "LSB;label=32;scalar=64";
    class       volTensorField;
    location    "30/fluidRegion";
    object      Kd.liquid.structure;
}
// * * * * * * * * * * * * * * * * * * * * * * * * * * * * * * * * * * * * * //

dimensions      [1 -3 -1 0 0 0 0];

internalField   nonuniform List<tensor> 
75
(
(418.515 0 0 0 418.515 0 0 0 418.515)
(418.515 0 0 0 418.515 0 0 0 418.515)
(418.515 0 0 0 418.515 0 0 0 418.515)
(418.515 0 0 0 418.515 0 0 0 418.515)
(418.515 0 0 0 418.515 0 0 0 418.515)
(417.603 0 0 0 417.603 0 0 0 417.603)
(416.866 0 0 0 416.866 0 0 0 416.866)
(428.452 0 0 0 428.452 0 0 0 428.452)
(448.781 0 0 0 448.781 0 0 0 448.781)
(474.823 0 0 0 474.823 0 0 0 474.823)
(506.059 0 0 0 506.059 0 0 0 506.059)
(542.369 0 0 0 542.369 0 0 0 542.369)
(584.095 0 0 0 584.095 0 0 0 584.095)
(631.736 0 0 0 631.736 0 0 0 631.736)
(685.879 0 0 0 685.879 0 0 0 685.879)
(747.115 0 0 0 747.115 0 0 0 747.115)
(815.969 0 0 0 815.969 0 0 0 815.969)
(892.814 0 0 0 892.814 0 0 0 892.814)
(977.788 0 0 0 977.788 0 0 0 977.788)
(1070.74 0 0 0 1070.74 0 0 0 1070.74)
(1172.47 0 0 0 1172.47 0 0 0 1172.47)
(1289.38 0 0 0 1289.38 0 0 0 1289.38)
(1412.28 0 0 0 1412.28 0 0 0 1412.28)
(1533.58 0 0 0 1533.58 0 0 0 1533.58)
(1651.66 0 0 0 1651.66 0 0 0 1651.66)
(1766.41 0 0 0 1766.41 0 0 0 1766.41)
(1877.85 0 0 0 1877.85 0 0 0 1877.85)
(1985.54 0 0 0 1985.54 0 0 0 1985.54)
(2089.53 0 0 0 2089.53 0 0 0 2089.53)
(2190.3 0 0 0 2190.3 0 0 0 2190.3)
(2288.25 0 0 0 2288.25 0 0 0 2288.25)
(2383.68 0 0 0 2383.68 0 0 0 2383.68)
(2476.88 0 0 0 2476.88 0 0 0 2476.88)
(2568.06 0 0 0 2568.06 0 0 0 2568.06)
(2657.43 0 0 0 2657.43 0 0 0 2657.43)
(2745.14 0 0 0 2745.14 0 0 0 2745.14)
(2831.37 0 0 0 2831.37 0 0 0 2831.37)
(2916.3 0 0 0 2916.3 0 0 0 2916.3)
(3000.07 0 0 0 3000.07 0 0 0 3000.07)
(3082.78 0 0 0 3082.78 0 0 0 3082.78)
(3164.52 0 0 0 3164.52 0 0 0 3164.52)
(3245.37 0 0 0 3245.37 0 0 0 3245.37)
(3325.39 0 0 0 3325.39 0 0 0 3325.39)
(3404.65 0 0 0 3404.65 0 0 0 3404.65)
(3483.18 0 0 0 3483.18 0 0 0 3483.18)
(3561.23 0 0 0 3561.23 0 0 0 3561.23)
(3654.88 0 0 0 3654.88 0 0 0 3654.88)
(3802.35 0 0 0 3802.35 0 0 0 3802.35)
(3950.5 0 0 0 3950.5 0 0 0 3950.5)
(4099.4 0 0 0 4099.4 0 0 0 4099.4)
(4249.6 0 0 0 4249.6 0 0 0 4249.6)
(4401.22 0 0 0 4401.22 0 0 0 4401.22)
(4554.4 0 0 0 4554.4 0 0 0 4554.4)
(4709.21 0 0 0 4709.21 0 0 0 4709.21)
(4865.71 0 0 0 4865.71 0 0 0 4865.71)
(5023.93 0 0 0 5023.93 0 0 0 5023.93)
(5183.92 0 0 0 5183.92 0 0 0 5183.92)
(5345.69 0 0 0 5345.69 0 0 0 5345.69)
(5509.28 0 0 0 5509.28 0 0 0 5509.28)
(5674.69 0 0 0 5674.69 0 0 0 5674.69)
(5841.95 0 0 0 5841.95 0 0 0 5841.95)
(6011.07 0 0 0 6011.07 0 0 0 6011.07)
(6182.08 0 0 0 6182.08 0 0 0 6182.08)
(6354.99 0 0 0 6354.99 0 0 0 6354.99)
(6529.82 0 0 0 6529.82 0 0 0 6529.82)
(6706.58 0 0 0 6706.58 0 0 0 6706.58)
(6885.29 0 0 0 6885.29 0 0 0 6885.29)
(7065.96 0 0 0 7065.96 0 0 0 7065.96)
(7248.63 0 0 0 7248.63 0 0 0 7248.63)
(7433.22 0 0 0 7433.22 0 0 0 7433.22)
(7620.12 0 0 0 7620.12 0 0 0 7620.12)
(7807.91 0 0 0 7807.91 0 0 0 7807.91)
(8002.05 0 0 0 8002.05 0 0 0 8002.05)
(8182.27 0 0 0 8182.27 0 0 0 8182.27)
(8423.42 0 0 0 8423.42 0 0 0 8423.42)
)
;

boundaryField
{
    inlet
    {
        type            zeroGradient;
    }
    outlet
    {
        type            zeroGradient;
    }
    fixedWalls
    {
        type            zeroGradient;
    }
}


// ************************************************************************* //
