/*--------------------------------*- C++ -*----------------------------------*\
| =========                 |                                                 |
| \\      /  F ield         | OpenFOAM: The Open Source CFD Toolbox           |
|  \\    /   O peration     | Version:  2406                                  |
|   \\  /    A nd           | Website:  www.openfoam.com                      |
|    \\/     M anipulation  |                                                 |
\*---------------------------------------------------------------------------*/
FoamFile
{
    version     2.0;
    format      ascii;
    arch        "LSB;label=32;scalar=64";
    class       volTensorField;
    location    "30/fluidRegion";
    object      KdTotU;
}
// * * * * * * * * * * * * * * * * * * * * * * * * * * * * * * * * * * * * * //

dimensions      [1 -2 -2 0 0 0 0];

internalField   nonuniform List<tensor> 
75
(
(539.499 0 0 0 539.499 0 0 0 539.499)
(539.499 0 0 0 539.499 0 0 0 539.499)
(539.499 0 0 0 539.499 0 0 0 539.499)
(539.499 0 0 0 539.499 0 0 0 539.499)
(539.499 0 0 0 539.499 0 0 0 539.499)
(538.626 0 0 0 538.626 0 0 0 538.626)
(538.308 0 0 0 538.308 0 0 0 538.308)
(554.767 0 0 0 554.767 0 0 0 554.767)
(584.079 0 0 0 584.079 0 0 0 584.079)
(622.19 0 0 0 622.19 0 0 0 622.19)
(668.578 0 0 0 668.578 0 0 0 668.578)
(723.409 0 0 0 723.409 0 0 0 723.409)
(787.595 0 0 0 787.595 0 0 0 787.595)
(862.401 0 0 0 862.401 0 0 0 862.401)
(949.368 0 0 0 949.368 0 0 0 949.368)
(1050.22 0 0 0 1050.22 0 0 0 1050.22)
(1166.78 0 0 0 1166.78 0 0 0 1166.78)
(1300.83 0 0 0 1300.83 0 0 0 1300.83)
(1453.95 0 0 0 1453.95 0 0 0 1453.95)
(1627.37 0 0 0 1627.37 0 0 0 1627.37)
(1824.28 0 0 0 1824.28 0 0 0 1824.28)
(2058.25 0 0 0 2058.25 0 0 0 2058.25)
(2315.54 0 0 0 2315.54 0 0 0 2315.54)
(2580.94 0 0 0 2580.94 0 0 0 2580.94)
(2850.21 0 0 0 2850.21 0 0 0 2850.21)
(3121.76 0 0 0 3121.76 0 0 0 3121.76)
(3394.42 0 0 0 3394.42 0 0 0 3394.42)
(3666.01 0 0 0 3666.01 0 0 0 3666.01)
(3935.5 0 0 0 3935.5 0 0 0 3935.5)
(4202.99 0 0 0 4202.99 0 0 0 4202.99)
(4468.6 0 0 0 4468.6 0 0 0 4468.6)
(4732.42 0 0 0 4732.42 0 0 0 4732.42)
(4994.52 0 0 0 4994.52 0 0 0 4994.52)
(5254.97 0 0 0 5254.97 0 0 0 5254.97)
(5513.81 0 0 0 5513.81 0 0 0 5513.81)
(5771.08 0 0 0 5771.08 0 0 0 5771.08)
(6026.87 0 0 0 6026.87 0 0 0 6026.87)
(6281.39 0 0 0 6281.39 0 0 0 6281.39)
(6534.75 0 0 0 6534.75 0 0 0 6534.75)
(6786.96 0 0 0 6786.96 0 0 0 6786.96)
(7038.04 0 0 0 7038.04 0 0 0 7038.04)
(7287.96 0 0 0 7287.96 0 0 0 7287.96)
(7536.73 0 0 0 7536.73 0 0 0 7536.73)
(7784.33 0 0 0 7784.33 0 0 0 7784.33)
(8030.73 0 0 0 8030.73 0 0 0 8030.73)
(8275.91 0 0 0 8275.91 0 0 0 8275.91)
(8553.71 0 0 0 8553.71 0 0 0 8553.71)
(8950.46 0 0 0 8950.46 0 0 0 8950.46)
(9343.52 0 0 0 9343.52 0 0 0 9343.52)
(9735.72 0 0 0 9735.72 0 0 0 9735.72)
(10129.1 0 0 0 10129.1 0 0 0 10129.1)
(10524.5 0 0 0 10524.5 0 0 0 10524.5)
(10922.5 0 0 0 10922.5 0 0 0 10922.5)
(11323.3 0 0 0 11323.3 0 0 0 11323.3)
(11726.9 0 0 0 11726.9 0 0 0 11726.9)
(12133.3 0 0 0 12133.3 0 0 0 12133.3)
(12542.6 0 0 0 12542.6 0 0 0 12542.6)
(12954.7 0 0 0 12954.7 0 0 0 12954.7)
(13369.4 0 0 0 13369.4 0 0 0 13369.4)
(13786.8 0 0 0 13786.8 0 0 0 13786.8)
(14206.6 0 0 0 14206.6 0 0 0 14206.6)
(14628.7 0 0 0 14628.7 0 0 0 14628.7)
(15053.2 0 0 0 15053.2 0 0 0 15053.2)
(15479.9 0 0 0 15479.9 0 0 0 15479.9)
(15908.6 0 0 0 15908.6 0 0 0 15908.6)
(16339.4 0 0 0 16339.4 0 0 0 16339.4)
(16772 0 0 0 16772 0 0 0 16772)
(17206.4 0 0 0 17206.4 0 0 0 17206.4)
(17642.5 0 0 0 17642.5 0 0 0 17642.5)
(18080 0 0 0 18080 0 0 0 18080)
(18519.8 0 0 0 18519.8 0 0 0 18519.8)
(18957.7 0 0 0 18957.7 0 0 0 18957.7)
(19409.5 0 0 0 19409.5 0 0 0 19409.5)
(19815.6 0 0 0 19815.6 0 0 0 19815.6)
(20395.2 0 0 0 20395.2 0 0 0 20395.2)
)
;

boundaryField
{
    inlet
    {
        type            zeroGradient;
    }
    outlet
    {
        type            zeroGradient;
    }
    fixedWalls
    {
        type            zeroGradient;
    }
}


// ************************************************************************* //
