/*--------------------------------*- C++ -*----------------------------------*\
| =========                 |                                                 |
| \\      /  F ield         | OpenFOAM: The Open Source CFD Toolbox           |
|  \\    /   O peration     | Version:  2406                                  |
|   \\  /    A nd           | Website:  www.openfoam.com                      |
|    \\/     M anipulation  |                                                 |
\*---------------------------------------------------------------------------*/
FoamFile
{
    version     2.0;
    format      ascii;
    arch        "LSB;label=32;scalar=64";
    class       volScalarField;
    location    "30/fluidRegion";
    object      dgdt.vapour;
}
// * * * * * * * * * * * * * * * * * * * * * * * * * * * * * * * * * * * * * //

dimensions      [0 0 -1 0 0 0 0];

internalField   nonuniform List<scalar> 
70
(
-2.38356e-222
-3.18355e-222
-7.25057e-222
-4.67587e-222
-4.88387e-222
-4.8824e-222
-5.4882e-222
-6.50248e-222
-4.50409e-222
-5.52025e-222
-5.6484e-222
-8.26808e-222
-7.96778e-222
-4.69355e-222
-6.01776e-222
-5.00069e-222
-2.43655e-221
-1.10839e-220
-4.10025e-221
-3.86683e-221
-1.8901e-221
-1.50363e-221
-1.58814e-221
-7.36331e-222
-7.98537e-222
-6.42975e-222
-1.89775e-222
-1.93122e-223
-1.27781e-222
-1.82894e-222
-2.0417e-222
-1.84482e-222
-3.73415e-222
-5.12608e-222
-4.09233e-222
-1.81982e-222
-1.37601e-222
-1.12201e-222
-1.29476e-222
0.091521
0.18374
0.275261
0.366641
0.458763
0.552069
0.646731
0.742624
0.839352
0.936269
1.03251
1.12706
1.17955
1.234
1.29316
1.35555
1.41965
1.48393
1.54686
1.60702
1.55085
1.48593
1.45561
1.44105
1.43488
1.43362
1.43544
1.43928
1.44452
1.45054
1.46176
)
;

boundaryField
{
    inlet
    {
        type            calculated;
        value           uniform -2.38356e-222;
    }
    outlet
    {
        type            calculated;
        value           uniform 1.46176;
    }
    fixedWalls
    {
        type            calculated;
        value           nonuniform List<scalar> 
280
(
-2.38356e-222
-3.18355e-222
-7.25057e-222
-4.67587e-222
-4.88387e-222
-4.8824e-222
-5.4882e-222
-6.50248e-222
-4.50409e-222
-5.52025e-222
-5.6484e-222
-8.26808e-222
-7.96778e-222
-4.69355e-222
-6.01776e-222
-5.00069e-222
-2.43655e-221
-1.10839e-220
-4.10025e-221
-3.86683e-221
-1.8901e-221
-1.50363e-221
-1.58814e-221
-7.36331e-222
-7.98537e-222
-6.42975e-222
-1.89775e-222
-1.93122e-223
-1.27781e-222
-1.82894e-222
-2.0417e-222
-1.84482e-222
-3.73415e-222
-5.12608e-222
-4.09233e-222
-1.81982e-222
-1.37601e-222
-1.12201e-222
-1.29476e-222
0.091521
0.18374
0.275261
0.366641
0.458763
0.552069
0.646731
0.742624
0.839352
0.936269
1.03251
1.12706
1.17955
1.234
1.29316
1.35555
1.41965
1.48393
1.54686
1.60702
1.55085
1.48593
1.45561
1.44105
1.43488
1.43362
1.43544
1.43928
1.44452
1.45054
1.46176
-2.38356e-222
-3.18355e-222
-7.25057e-222
-4.67587e-222
-4.88387e-222
-4.8824e-222
-5.4882e-222
-6.50248e-222
-4.50409e-222
-5.52025e-222
-5.6484e-222
-8.26808e-222
-7.96778e-222
-4.69355e-222
-6.01776e-222
-5.00069e-222
-2.43655e-221
-1.10839e-220
-4.10025e-221
-3.86683e-221
-1.8901e-221
-1.50363e-221
-1.58814e-221
-7.36331e-222
-7.98537e-222
-6.42975e-222
-1.89775e-222
-1.93122e-223
-1.27781e-222
-1.82894e-222
-2.0417e-222
-1.84482e-222
-3.73415e-222
-5.12608e-222
-4.09233e-222
-1.81982e-222
-1.37601e-222
-1.12201e-222
-1.29476e-222
0.091521
0.18374
0.275261
0.366641
0.458763
0.552069
0.646731
0.742624
0.839352
0.936269
1.03251
1.12706
1.17955
1.234
1.29316
1.35555
1.41965
1.48393
1.54686
1.60702
1.55085
1.48593
1.45561
1.44105
1.43488
1.43362
1.43544
1.43928
1.44452
1.45054
1.46176
-2.38356e-222
-3.18355e-222
-7.25057e-222
-4.67587e-222
-4.88387e-222
-4.8824e-222
-5.4882e-222
-6.50248e-222
-4.50409e-222
-5.52025e-222
-5.6484e-222
-8.26808e-222
-7.96778e-222
-4.69355e-222
-6.01776e-222
-5.00069e-222
-2.43655e-221
-1.10839e-220
-4.10025e-221
-3.86683e-221
-1.8901e-221
-1.50363e-221
-1.58814e-221
-7.36331e-222
-7.98537e-222
-6.42975e-222
-1.89775e-222
-1.93122e-223
-1.27781e-222
-1.82894e-222
-2.0417e-222
-1.84482e-222
-3.73415e-222
-5.12608e-222
-4.09233e-222
-1.81982e-222
-1.37601e-222
-1.12201e-222
-1.29476e-222
0.091521
0.18374
0.275261
0.366641
0.458763
0.552069
0.646731
0.742624
0.839352
0.936269
1.03251
1.12706
1.17955
1.234
1.29316
1.35555
1.41965
1.48393
1.54686
1.60702
1.55085
1.48593
1.45561
1.44105
1.43488
1.43362
1.43544
1.43928
1.44452
1.45054
1.46176
-2.38356e-222
-3.18355e-222
-7.25057e-222
-4.67587e-222
-4.88387e-222
-4.8824e-222
-5.4882e-222
-6.50248e-222
-4.50409e-222
-5.52025e-222
-5.6484e-222
-8.26808e-222
-7.96778e-222
-4.69355e-222
-6.01776e-222
-5.00069e-222
-2.43655e-221
-1.10839e-220
-4.10025e-221
-3.86683e-221
-1.8901e-221
-1.50363e-221
-1.58814e-221
-7.36331e-222
-7.98537e-222
-6.42975e-222
-1.89775e-222
-1.93122e-223
-1.27781e-222
-1.82894e-222
-2.0417e-222
-1.84482e-222
-3.73415e-222
-5.12608e-222
-4.09233e-222
-1.81982e-222
-1.37601e-222
-1.12201e-222
-1.29476e-222
0.091521
0.18374
0.275261
0.366641
0.458763
0.552069
0.646731
0.742624
0.839352
0.936269
1.03251
1.12706
1.17955
1.234
1.29316
1.35555
1.41965
1.48393
1.54686
1.60702
1.55085
1.48593
1.45561
1.44105
1.43488
1.43362
1.43544
1.43928
1.44452
1.45054
1.46176
)
;
    }
}


// ************************************************************************* //
