/*--------------------------------*- C++ -*----------------------------------*\
| =========                 |                                                 |
| \\      /  F ield         | OpenFOAM: The Open Source CFD Toolbox           |
|  \\    /   O peration     | Version:  2406                                  |
|   \\  /    A nd           | Website:  www.openfoam.com                      |
|    \\/     M anipulation  |                                                 |
\*---------------------------------------------------------------------------*/
FoamFile
{
    version     2.0;
    format      ascii;
    arch        "LSB;label=32;scalar=64";
    class       volTensorField;
    location    "30/fluidRegion";
    object      Kd.liquid.structure;
}
// * * * * * * * * * * * * * * * * * * * * * * * * * * * * * * * * * * * * * //

dimensions      [1 -3 -1 0 0 0 0];

internalField   nonuniform List<tensor> 
70
(
(797.346 0 0 0 797.346 0 0 0 797.346)
(796.932 0 0 0 796.932 0 0 0 796.932)
(796.52 0 0 0 796.52 0 0 0 796.52)
(796.111 0 0 0 796.111 0 0 0 796.111)
(795.703 0 0 0 795.703 0 0 0 795.703)
(795.299 0 0 0 795.299 0 0 0 795.299)
(794.896 0 0 0 794.896 0 0 0 794.896)
(794.496 0 0 0 794.496 0 0 0 794.496)
(794.098 0 0 0 794.098 0 0 0 794.098)
(793.702 0 0 0 793.702 0 0 0 793.702)
(793.309 0 0 0 793.309 0 0 0 793.309)
(792.917 0 0 0 792.917 0 0 0 792.917)
(792.528 0 0 0 792.528 0 0 0 792.528)
(792.141 0 0 0 792.141 0 0 0 792.141)
(791.756 0 0 0 791.756 0 0 0 791.756)
(791.373 0 0 0 791.373 0 0 0 791.373)
(790.992 0 0 0 790.992 0 0 0 790.992)
(790.613 0 0 0 790.613 0 0 0 790.613)
(790.236 0 0 0 790.236 0 0 0 790.236)
(789.861 0 0 0 789.861 0 0 0 789.861)
(789.488 0 0 0 789.488 0 0 0 789.488)
(789.117 0 0 0 789.117 0 0 0 789.117)
(788.747 0 0 0 788.747 0 0 0 788.747)
(788.38 0 0 0 788.38 0 0 0 788.38)
(788.014 0 0 0 788.014 0 0 0 788.014)
(787.65 0 0 0 787.65 0 0 0 787.65)
(787.288 0 0 0 787.288 0 0 0 787.288)
(786.927 0 0 0 786.927 0 0 0 786.927)
(786.569 0 0 0 786.569 0 0 0 786.569)
(786.211 0 0 0 786.211 0 0 0 786.211)
(785.856 0 0 0 785.856 0 0 0 785.856)
(785.502 0 0 0 785.502 0 0 0 785.502)
(785.15 0 0 0 785.15 0 0 0 785.15)
(784.799 0 0 0 784.799 0 0 0 784.799)
(784.45 0 0 0 784.45 0 0 0 784.45)
(784.102 0 0 0 784.102 0 0 0 784.102)
(783.756 0 0 0 783.756 0 0 0 783.756)
(783.412 0 0 0 783.412 0 0 0 783.412)
(783.068 0 0 0 783.068 0 0 0 783.068)
(795.339 0 0 0 795.339 0 0 0 795.339)
(818.153 0 0 0 818.153 0 0 0 818.153)
(849.201 0 0 0 849.201 0 0 0 849.201)
(887.998 0 0 0 887.998 0 0 0 887.998)
(933.864 0 0 0 933.864 0 0 0 933.864)
(986.363 0 0 0 986.363 0 0 0 986.363)
(1045.08 0 0 0 1045.08 0 0 0 1045.08)
(1109.63 0 0 0 1109.63 0 0 0 1109.63)
(1179.6 0 0 0 1179.6 0 0 0 1179.6)
(1254.57 0 0 0 1254.57 0 0 0 1254.57)
(1334.08 0 0 0 1334.08 0 0 0 1334.08)
(1417.56 0 0 0 1417.56 0 0 0 1417.56)
(1502.34 0 0 0 1502.34 0 0 0 1502.34)
(1587.8 0 0 0 1587.8 0 0 0 1587.8)
(1674.19 0 0 0 1674.19 0 0 0 1674.19)
(1761.73 0 0 0 1761.73 0 0 0 1761.73)
(1850.47 0 0 0 1850.47 0 0 0 1850.47)
(1940.35 0 0 0 1940.35 0 0 0 1940.35)
(2031.23 0 0 0 2031.23 0 0 0 2031.23)
(2122.79 0 0 0 2122.79 0 0 0 2122.79)
(2210.3 0 0 0 2210.3 0 0 0 2210.3)
(2291.84 0 0 0 2291.84 0 0 0 2291.84)
(2369.1 0 0 0 2369.1 0 0 0 2369.1)
(2443.62 0 0 0 2443.62 0 0 0 2443.62)
(2516.15 0 0 0 2516.15 0 0 0 2516.15)
(2587.11 0 0 0 2587.11 0 0 0 2587.11)
(2656.76 0 0 0 2656.76 0 0 0 2656.76)
(2725.27 0 0 0 2725.27 0 0 0 2725.27)
(2792.78 0 0 0 2792.78 0 0 0 2792.78)
(2859.41 0 0 0 2859.41 0 0 0 2859.41)
(2924.93 0 0 0 2924.93 0 0 0 2924.93)
)
;

boundaryField
{
    inlet
    {
        type            zeroGradient;
    }
    outlet
    {
        type            zeroGradient;
    }
    fixedWalls
    {
        type            zeroGradient;
    }
}


// ************************************************************************* //
