/*--------------------------------*- C++ -*----------------------------------*\
| =========                 |                                                 |
| \\      /  F ield         | OpenFOAM: The Open Source CFD Toolbox           |
|  \\    /   O peration     | Version:  2406                                  |
|   \\  /    A nd           | Website:  www.openfoam.com                      |
|    \\/     M anipulation  |                                                 |
\*---------------------------------------------------------------------------*/
FoamFile
{
    version     2.0;
    format      ascii;
    arch        "LSB;label=32;scalar=64";
    class       volTensorField;
    location    "30/fluidRegion";
    object      KdTotU;
}
// * * * * * * * * * * * * * * * * * * * * * * * * * * * * * * * * * * * * * //

dimensions      [1 -2 -2 0 0 0 0];

internalField   nonuniform List<tensor> 
70
(
(2430.04 0 0 0 2430.04 0 0 0 2430.04)
(2429.56 0 0 0 2429.56 0 0 0 2429.56)
(2429.11 0 0 0 2429.11 0 0 0 2429.11)
(2428.69 0 0 0 2428.69 0 0 0 2428.69)
(2428.3 0 0 0 2428.3 0 0 0 2428.3)
(2427.93 0 0 0 2427.93 0 0 0 2427.93)
(2427.59 0 0 0 2427.59 0 0 0 2427.59)
(2427.28 0 0 0 2427.28 0 0 0 2427.28)
(2426.99 0 0 0 2426.99 0 0 0 2426.99)
(2426.73 0 0 0 2426.73 0 0 0 2426.73)
(2426.5 0 0 0 2426.5 0 0 0 2426.5)
(2426.29 0 0 0 2426.29 0 0 0 2426.29)
(2426.11 0 0 0 2426.11 0 0 0 2426.11)
(2425.95 0 0 0 2425.95 0 0 0 2425.95)
(2425.82 0 0 0 2425.82 0 0 0 2425.82)
(2425.72 0 0 0 2425.72 0 0 0 2425.72)
(2425.64 0 0 0 2425.64 0 0 0 2425.64)
(2425.59 0 0 0 2425.59 0 0 0 2425.59)
(2425.56 0 0 0 2425.56 0 0 0 2425.56)
(2425.56 0 0 0 2425.56 0 0 0 2425.56)
(2425.58 0 0 0 2425.58 0 0 0 2425.58)
(2425.62 0 0 0 2425.62 0 0 0 2425.62)
(2425.69 0 0 0 2425.69 0 0 0 2425.69)
(2425.79 0 0 0 2425.79 0 0 0 2425.79)
(2425.91 0 0 0 2425.91 0 0 0 2425.91)
(2426.05 0 0 0 2426.05 0 0 0 2426.05)
(2426.22 0 0 0 2426.22 0 0 0 2426.22)
(2426.41 0 0 0 2426.41 0 0 0 2426.41)
(2426.62 0 0 0 2426.62 0 0 0 2426.62)
(2426.86 0 0 0 2426.86 0 0 0 2426.86)
(2427.12 0 0 0 2427.12 0 0 0 2427.12)
(2427.41 0 0 0 2427.41 0 0 0 2427.41)
(2427.72 0 0 0 2427.72 0 0 0 2427.72)
(2428.05 0 0 0 2428.05 0 0 0 2428.05)
(2428.4 0 0 0 2428.4 0 0 0 2428.4)
(2428.78 0 0 0 2428.78 0 0 0 2428.78)
(2429.18 0 0 0 2429.18 0 0 0 2429.18)
(2429.6 0 0 0 2429.6 0 0 0 2429.6)
(2430.05 0 0 0 2430.05 0 0 0 2430.05)
(2471.44 0 0 0 2471.44 0 0 0 2471.44)
(2549.09 0 0 0 2549.09 0 0 0 2549.09)
(2655.87 0 0 0 2655.87 0 0 0 2655.87)
(2790.71 0 0 0 2790.71 0 0 0 2790.71)
(2952.05 0 0 0 2952.05 0 0 0 2952.05)
(3139.23 0 0 0 3139.23 0 0 0 3139.23)
(3351.68 0 0 0 3351.68 0 0 0 3351.68)
(3589.01 0 0 0 3589.01 0 0 0 3589.01)
(3850.74 0 0 0 3850.74 0 0 0 3850.74)
(4136.34 0 0 0 4136.34 0 0 0 4136.34)
(4445.1 0 0 0 4445.1 0 0 0 4445.1)
(4775.75 0 0 0 4775.75 0 0 0 4775.75)
(5119.09 0 0 0 5119.09 0 0 0 5119.09)
(5472.49 0 0 0 5472.49 0 0 0 5472.49)
(5837.14 0 0 0 5837.14 0 0 0 5837.14)
(6214.11 0 0 0 6214.11 0 0 0 6214.11)
(6603.93 0 0 0 6603.93 0 0 0 6603.93)
(7006.64 0 0 0 7006.64 0 0 0 7006.64)
(7421.93 0 0 0 7421.93 0 0 0 7421.93)
(7848.46 0 0 0 7848.46 0 0 0 7848.46)
(8265.66 0 0 0 8265.66 0 0 0 8265.66)
(8662.87 0 0 0 8662.87 0 0 0 8662.87)
(9045.96 0 0 0 9045.96 0 0 0 9045.96)
(9421.21 0 0 0 9421.21 0 0 0 9421.21)
(9791.68 0 0 0 9791.68 0 0 0 9791.68)
(10159.1 0 0 0 10159.1 0 0 0 10159.1)
(10524.4 0 0 0 10524.4 0 0 0 10524.4)
(10888.4 0 0 0 10888.4 0 0 0 10888.4)
(11251.4 0 0 0 11251.4 0 0 0 11251.4)
(11614.4 0 0 0 11614.4 0 0 0 11614.4)
(11969 0 0 0 11969 0 0 0 11969)
)
;

boundaryField
{
    inlet
    {
        type            zeroGradient;
    }
    outlet
    {
        type            zeroGradient;
    }
    fixedWalls
    {
        type            zeroGradient;
    }
}


// ************************************************************************* //
