/*--------------------------------*- C++ -*----------------------------------*\
| =========                 |                                                 |
| \\      /  F ield         | OpenFOAM: The Open Source CFD Toolbox           |
|  \\    /   O peration     | Version:  2406                                  |
|   \\  /    A nd           | Website:  www.openfoam.com                      |
|    \\/     M anipulation  |                                                 |
\*---------------------------------------------------------------------------*/
FoamFile
{
    version     2.0;
    format      ascii;
    arch        "LSB;label=32;scalar=64";
    class       volScalarField;
    location    "30/fluidRegion";
    object      p;
}
// * * * * * * * * * * * * * * * * * * * * * * * * * * * * * * * * * * * * * //

dimensions      [1 -1 -2 0 0 0 0];

internalField   nonuniform List<scalar> 
70
(
7.22078e+06
7.22063e+06
7.22048e+06
7.22033e+06
7.22018e+06
7.22003e+06
7.21988e+06
7.21973e+06
7.21958e+06
7.21943e+06
7.21928e+06
7.21912e+06
7.21897e+06
7.21882e+06
7.21867e+06
7.21852e+06
7.21837e+06
7.21822e+06
7.21807e+06
7.21792e+06
7.21777e+06
7.21761e+06
7.21746e+06
7.21731e+06
7.21716e+06
7.21701e+06
7.21686e+06
7.2167e+06
7.21655e+06
7.2164e+06
7.21625e+06
7.2161e+06
7.21595e+06
7.21579e+06
7.21564e+06
7.21549e+06
7.21534e+06
7.21518e+06
7.21503e+06
7.21488e+06
7.21471e+06
7.21453e+06
7.21434e+06
7.21412e+06
7.21389e+06
7.21364e+06
7.21337e+06
7.21307e+06
7.21276e+06
7.21241e+06
7.21205e+06
7.21165e+06
7.21124e+06
7.21079e+06
7.21033e+06
7.20983e+06
7.20931e+06
7.20876e+06
7.20819e+06
7.20759e+06
7.20696e+06
7.20632e+06
7.20565e+06
7.20497e+06
7.20427e+06
7.20354e+06
7.2028e+06
7.20203e+06
7.20124e+06
7.20043e+06
)
;

boundaryField
{
    inlet
    {
        type            calculated;
        value           uniform 7.22085e+06;
    }
    outlet
    {
        type            calculated;
        value           uniform 7.2e+06;
    }
    fixedWalls
    {
        type            calculated;
        value           nonuniform List<scalar> 
280
(
7.22078e+06
7.22063e+06
7.22048e+06
7.22033e+06
7.22018e+06
7.22003e+06
7.21988e+06
7.21973e+06
7.21958e+06
7.21943e+06
7.21928e+06
7.21912e+06
7.21897e+06
7.21882e+06
7.21867e+06
7.21852e+06
7.21837e+06
7.21822e+06
7.21807e+06
7.21792e+06
7.21777e+06
7.21761e+06
7.21746e+06
7.21731e+06
7.21716e+06
7.21701e+06
7.21686e+06
7.2167e+06
7.21655e+06
7.2164e+06
7.21625e+06
7.2161e+06
7.21595e+06
7.21579e+06
7.21564e+06
7.21549e+06
7.21534e+06
7.21518e+06
7.21503e+06
7.21488e+06
7.21471e+06
7.21453e+06
7.21434e+06
7.21412e+06
7.21389e+06
7.21364e+06
7.21337e+06
7.21307e+06
7.21276e+06
7.21241e+06
7.21205e+06
7.21165e+06
7.21124e+06
7.21079e+06
7.21033e+06
7.20983e+06
7.20931e+06
7.20876e+06
7.20819e+06
7.20759e+06
7.20696e+06
7.20632e+06
7.20565e+06
7.20497e+06
7.20427e+06
7.20354e+06
7.2028e+06
7.20203e+06
7.20124e+06
7.20043e+06
7.22078e+06
7.22063e+06
7.22048e+06
7.22033e+06
7.22018e+06
7.22003e+06
7.21988e+06
7.21973e+06
7.21958e+06
7.21943e+06
7.21928e+06
7.21912e+06
7.21897e+06
7.21882e+06
7.21867e+06
7.21852e+06
7.21837e+06
7.21822e+06
7.21807e+06
7.21792e+06
7.21777e+06
7.21761e+06
7.21746e+06
7.21731e+06
7.21716e+06
7.21701e+06
7.21686e+06
7.2167e+06
7.21655e+06
7.2164e+06
7.21625e+06
7.2161e+06
7.21595e+06
7.21579e+06
7.21564e+06
7.21549e+06
7.21534e+06
7.21518e+06
7.21503e+06
7.21488e+06
7.21471e+06
7.21453e+06
7.21434e+06
7.21412e+06
7.21389e+06
7.21364e+06
7.21337e+06
7.21307e+06
7.21276e+06
7.21241e+06
7.21205e+06
7.21165e+06
7.21124e+06
7.21079e+06
7.21033e+06
7.20983e+06
7.20931e+06
7.20876e+06
7.20819e+06
7.20759e+06
7.20696e+06
7.20632e+06
7.20565e+06
7.20497e+06
7.20427e+06
7.20354e+06
7.2028e+06
7.20203e+06
7.20124e+06
7.20043e+06
7.22078e+06
7.22063e+06
7.22048e+06
7.22033e+06
7.22018e+06
7.22003e+06
7.21988e+06
7.21973e+06
7.21958e+06
7.21943e+06
7.21928e+06
7.21912e+06
7.21897e+06
7.21882e+06
7.21867e+06
7.21852e+06
7.21837e+06
7.21822e+06
7.21807e+06
7.21792e+06
7.21777e+06
7.21761e+06
7.21746e+06
7.21731e+06
7.21716e+06
7.21701e+06
7.21686e+06
7.2167e+06
7.21655e+06
7.2164e+06
7.21625e+06
7.2161e+06
7.21595e+06
7.21579e+06
7.21564e+06
7.21549e+06
7.21534e+06
7.21518e+06
7.21503e+06
7.21488e+06
7.21471e+06
7.21453e+06
7.21434e+06
7.21412e+06
7.21389e+06
7.21364e+06
7.21337e+06
7.21307e+06
7.21276e+06
7.21241e+06
7.21205e+06
7.21165e+06
7.21124e+06
7.21079e+06
7.21033e+06
7.20983e+06
7.20931e+06
7.20876e+06
7.20819e+06
7.20759e+06
7.20696e+06
7.20632e+06
7.20565e+06
7.20497e+06
7.20427e+06
7.20354e+06
7.2028e+06
7.20203e+06
7.20124e+06
7.20043e+06
7.22078e+06
7.22063e+06
7.22048e+06
7.22033e+06
7.22018e+06
7.22003e+06
7.21988e+06
7.21973e+06
7.21958e+06
7.21943e+06
7.21928e+06
7.21912e+06
7.21897e+06
7.21882e+06
7.21867e+06
7.21852e+06
7.21837e+06
7.21822e+06
7.21807e+06
7.21792e+06
7.21777e+06
7.21761e+06
7.21746e+06
7.21731e+06
7.21716e+06
7.21701e+06
7.21686e+06
7.2167e+06
7.21655e+06
7.2164e+06
7.21625e+06
7.2161e+06
7.21595e+06
7.21579e+06
7.21564e+06
7.21549e+06
7.21534e+06
7.21518e+06
7.21503e+06
7.21488e+06
7.21471e+06
7.21453e+06
7.21434e+06
7.21412e+06
7.21389e+06
7.21364e+06
7.21337e+06
7.21307e+06
7.21276e+06
7.21241e+06
7.21205e+06
7.21165e+06
7.21124e+06
7.21079e+06
7.21033e+06
7.20983e+06
7.20931e+06
7.20876e+06
7.20819e+06
7.20759e+06
7.20696e+06
7.20632e+06
7.20565e+06
7.20497e+06
7.20427e+06
7.20354e+06
7.2028e+06
7.20203e+06
7.20124e+06
7.20043e+06
)
;
    }
}


// ************************************************************************* //
