/*--------------------------------*- C++ -*----------------------------------*\
| =========                 |                                                 |
| \\      /  F ield         | OpenFOAM: The Open Source CFD Toolbox           |
|  \\    /   O peration     | Version:  2406                                  |
|   \\  /    A nd           | Website:  www.openfoam.com                      |
|    \\/     M anipulation  |                                                 |
\*---------------------------------------------------------------------------*/
FoamFile
{
    version     2.0;
    format      ascii;
    arch        "LSB;label=32;scalar=64";
    class       volScalarField;
    location    "30/fluidRegion";
    object      alphaRhoMagU.vapour;
}
// * * * * * * * * * * * * * * * * * * * * * * * * * * * * * * * * * * * * * //

dimensions      [1 -2 -1 0 0 0 0];

internalField   nonuniform List<scalar> 
75
(
0
0
0
0
0
0
0
0
0
0
0
0
0
0
0.0508534
0.151433
0.292984
0.475016
0.698467
0.96656
1.28378
1.65566
2.08844
2.58871
3.163
3.8173
4.55651
5.38382
6.30083
7.31838
8.43635
9.61622
10.8298
12.0588
13.2975
14.5446
15.7996
17.062
18.3315
19.608
20.8911
22.1807
23.4766
24.7786
26.0866
27.4005
28.7199
30.0449
31.3753
32.7108
34.0514
35.3969
36.7476
38.1049
39.4691
40.84
42.2175
43.6014
44.9915
46.3876
47.7895
49.1971
50.61
52.0282
53.4513
54.8794
56.3103
57.7257
59.1203
60.5107
61.8963
63.2798
64.6645
66.0355
67.481
)
;

boundaryField
{
    inlet
    {
        type            calculated;
        value           uniform 0;
    }
    outlet
    {
        type            calculated;
        value           uniform 67.4786;
    }
    fixedWalls
    {
        type            calculated;
        value           nonuniform List<scalar> 
300
(
0
0
0
0
0
0
0
0
0
0
0
0
0
0
0.0508534
0.151433
0.292984
0.475016
0.698467
0.96656
1.28378
1.65566
2.08844
2.58871
3.163
3.8173
4.55651
5.38382
6.30083
7.31838
8.43635
9.61622
10.8298
12.0588
13.2975
14.5446
15.7996
17.062
18.3315
19.608
20.8911
22.1807
23.4766
24.7786
26.0866
27.4005
28.7199
30.0449
31.3753
32.7108
34.0514
35.3969
36.7476
38.1049
39.4691
40.84
42.2175
43.6014
44.9915
46.3876
47.7895
49.1971
50.61
52.0282
53.4513
54.8794
56.3103
57.7257
59.1203
60.5107
61.8963
63.2798
64.6645
66.0355
67.481
0
0
0
0
0
0
0
0
0
0
0
0
0
0
0.0508534
0.151433
0.292984
0.475016
0.698467
0.96656
1.28378
1.65566
2.08844
2.58871
3.163
3.8173
4.55651
5.38382
6.30083
7.31838
8.43635
9.61622
10.8298
12.0588
13.2975
14.5446
15.7996
17.062
18.3315
19.608
20.8911
22.1807
23.4766
24.7786
26.0866
27.4005
28.7199
30.0449
31.3753
32.7108
34.0514
35.3969
36.7476
38.1049
39.4691
40.84
42.2175
43.6014
44.9915
46.3876
47.7895
49.1971
50.61
52.0282
53.4513
54.8794
56.3103
57.7257
59.1203
60.5107
61.8963
63.2798
64.6645
66.0355
67.481
0
0
0
0
0
0
0
0
0
0
0
0
0
0
0.0508534
0.151433
0.292984
0.475016
0.698467
0.96656
1.28378
1.65566
2.08844
2.58871
3.163
3.8173
4.55651
5.38382
6.30083
7.31838
8.43635
9.61622
10.8298
12.0588
13.2975
14.5446
15.7996
17.062
18.3315
19.608
20.8911
22.1807
23.4766
24.7786
26.0866
27.4005
28.7199
30.0449
31.3753
32.7108
34.0514
35.3969
36.7476
38.1049
39.4691
40.84
42.2175
43.6014
44.9915
46.3876
47.7895
49.1971
50.61
52.0282
53.4513
54.8794
56.3103
57.7257
59.1203
60.5107
61.8963
63.2798
64.6645
66.0355
67.481
0
0
0
0
0
0
0
0
0
0
0
0
0
0
0.0508534
0.151433
0.292984
0.475016
0.698467
0.96656
1.28378
1.65566
2.08844
2.58871
3.163
3.8173
4.55651
5.38382
6.30083
7.31838
8.43635
9.61622
10.8298
12.0588
13.2975
14.5446
15.7996
17.062
18.3315
19.608
20.8911
22.1807
23.4766
24.7786
26.0866
27.4005
28.7199
30.0449
31.3753
32.7108
34.0514
35.3969
36.7476
38.1049
39.4691
40.84
42.2175
43.6014
44.9915
46.3876
47.7895
49.1971
50.61
52.0282
53.4513
54.8794
56.3103
57.7257
59.1203
60.5107
61.8963
63.2798
64.6645
66.0355
67.481
)
;
    }
}


// ************************************************************************* //
