/*--------------------------------*- C++ -*----------------------------------*\
| =========                 |                                                 |
| \\      /  F ield         | OpenFOAM: The Open Source CFD Toolbox           |
|  \\    /   O peration     | Version:  2406                                  |
|   \\  /    A nd           | Website:  www.openfoam.com                      |
|    \\/     M anipulation  |                                                 |
\*---------------------------------------------------------------------------*/
FoamFile
{
    version     2.0;
    format      ascii;
    arch        "LSB;label=32;scalar=64";
    class       volScalarField;
    location    "30/fluidRegion";
    object      dgdt.vapour;
}
// * * * * * * * * * * * * * * * * * * * * * * * * * * * * * * * * * * * * * //

dimensions      [0 0 -1 0 0 0 0];

internalField   nonuniform List<scalar> 
75
(
-0
-0
-0
-0
-0
-0
-0
-0
-0
-0
-0
-0
-0
-0
0.0894582
0.164338
0.232089
0.297774
0.366019
0.439793
0.521328
0.612271
0.713754
0.826329
0.94983
1.08323
1.22452
1.37073
1.51805
1.68905
1.85604
1.93862
1.98717
2.00604
2.02128
2.03457
2.04672
2.05813
2.06904
2.07956
2.08977
2.09972
2.10943
2.11892
2.12819
2.13726
2.14611
2.15477
2.16322
2.17147
2.17951
2.18736
2.1959
2.20741
2.21866
2.22966
2.24039
2.25084
2.26101
2.27089
2.28047
2.28976
2.29875
2.30743
2.31582
2.32391
2.3317
2.32346
2.28369
2.26636
2.25755
2.253
2.2508
2.25083
2.25277
)
;

boundaryField
{
    inlet
    {
        type            calculated;
        value           uniform -0;
    }
    outlet
    {
        type            calculated;
        value           uniform 2.25277;
    }
    fixedWalls
    {
        type            calculated;
        value           nonuniform List<scalar> 
300
(
-0
-0
-0
-0
-0
-0
-0
-0
-0
-0
-0
-0
-0
-0
0.0894582
0.164338
0.232089
0.297774
0.366019
0.439793
0.521328
0.612271
0.713754
0.826329
0.94983
1.08323
1.22452
1.37073
1.51805
1.68905
1.85604
1.93862
1.98717
2.00604
2.02128
2.03457
2.04672
2.05813
2.06904
2.07956
2.08977
2.09972
2.10943
2.11892
2.12819
2.13726
2.14611
2.15477
2.16322
2.17147
2.17951
2.18736
2.1959
2.20741
2.21866
2.22966
2.24039
2.25084
2.26101
2.27089
2.28047
2.28976
2.29875
2.30743
2.31582
2.32391
2.3317
2.32346
2.28369
2.26636
2.25755
2.253
2.2508
2.25083
2.25277
-0
-0
-0
-0
-0
-0
-0
-0
-0
-0
-0
-0
-0
-0
0.0894582
0.164338
0.232089
0.297774
0.366019
0.439793
0.521328
0.612271
0.713754
0.826329
0.94983
1.08323
1.22452
1.37073
1.51805
1.68905
1.85604
1.93862
1.98717
2.00604
2.02128
2.03457
2.04672
2.05813
2.06904
2.07956
2.08977
2.09972
2.10943
2.11892
2.12819
2.13726
2.14611
2.15477
2.16322
2.17147
2.17951
2.18736
2.1959
2.20741
2.21866
2.22966
2.24039
2.25084
2.26101
2.27089
2.28047
2.28976
2.29875
2.30743
2.31582
2.32391
2.3317
2.32346
2.28369
2.26636
2.25755
2.253
2.2508
2.25083
2.25277
-0
-0
-0
-0
-0
-0
-0
-0
-0
-0
-0
-0
-0
-0
0.0894582
0.164338
0.232089
0.297774
0.366019
0.439793
0.521328
0.612271
0.713754
0.826329
0.94983
1.08323
1.22452
1.37073
1.51805
1.68905
1.85604
1.93862
1.98717
2.00604
2.02128
2.03457
2.04672
2.05813
2.06904
2.07956
2.08977
2.09972
2.10943
2.11892
2.12819
2.13726
2.14611
2.15477
2.16322
2.17147
2.17951
2.18736
2.1959
2.20741
2.21866
2.22966
2.24039
2.25084
2.26101
2.27089
2.28047
2.28976
2.29875
2.30743
2.31582
2.32391
2.3317
2.32346
2.28369
2.26636
2.25755
2.253
2.2508
2.25083
2.25277
-0
-0
-0
-0
-0
-0
-0
-0
-0
-0
-0
-0
-0
-0
0.0894582
0.164338
0.232089
0.297774
0.366019
0.439793
0.521328
0.612271
0.713754
0.826329
0.94983
1.08323
1.22452
1.37073
1.51805
1.68905
1.85604
1.93862
1.98717
2.00604
2.02128
2.03457
2.04672
2.05813
2.06904
2.07956
2.08977
2.09972
2.10943
2.11892
2.12819
2.13726
2.14611
2.15477
2.16322
2.17147
2.17951
2.18736
2.1959
2.20741
2.21866
2.22966
2.24039
2.25084
2.26101
2.27089
2.28047
2.28976
2.29875
2.30743
2.31582
2.32391
2.3317
2.32346
2.28369
2.26636
2.25755
2.253
2.2508
2.25083
2.25277
)
;
    }
}


// ************************************************************************* //
