/*--------------------------------*- C++ -*----------------------------------*\
| =========                 |                                                 |
| \\      /  F ield         | OpenFOAM: The Open Source CFD Toolbox           |
|  \\    /   O peration     | Version:  2406                                  |
|   \\  /    A nd           | Website:  www.openfoam.com                      |
|    \\/     M anipulation  |                                                 |
\*---------------------------------------------------------------------------*/
FoamFile
{
    version     2.0;
    format      ascii;
    arch        "LSB;label=32;scalar=64";
    class       volTensorField;
    location    "30/fluidRegion";
    object      Kd.liquid.structure;
}
// * * * * * * * * * * * * * * * * * * * * * * * * * * * * * * * * * * * * * //

dimensions      [1 -3 -1 0 0 0 0];

internalField   nonuniform List<tensor> 
75
(
(418.515 0 0 0 418.515 0 0 0 418.515)
(418.515 0 0 0 418.515 0 0 0 418.515)
(418.515 0 0 0 418.515 0 0 0 418.515)
(418.515 0 0 0 418.515 0 0 0 418.515)
(418.515 0 0 0 418.515 0 0 0 418.515)
(417.903 0 0 0 417.903 0 0 0 417.903)
(417.406 0 0 0 417.406 0 0 0 417.406)
(416.917 0 0 0 416.917 0 0 0 416.917)
(416.433 0 0 0 416.433 0 0 0 416.433)
(415.956 0 0 0 415.956 0 0 0 415.956)
(415.485 0 0 0 415.485 0 0 0 415.485)
(415.019 0 0 0 415.019 0 0 0 415.019)
(414.559 0 0 0 414.559 0 0 0 414.559)
(414.104 0 0 0 414.104 0 0 0 414.104)
(424.092 0 0 0 424.092 0 0 0 424.092)
(441.346 0 0 0 441.346 0 0 0 441.346)
(463.658 0 0 0 463.658 0 0 0 463.658)
(490.552 0 0 0 490.552 0 0 0 490.552)
(521.768 0 0 0 521.768 0 0 0 521.768)
(557.358 0 0 0 557.358 0 0 0 557.358)
(597.487 0 0 0 597.487 0 0 0 597.487)
(642.383 0 0 0 642.383 0 0 0 642.383)
(692.273 0 0 0 692.273 0 0 0 692.273)
(747.348 0 0 0 747.348 0 0 0 747.348)
(807.71 0 0 0 807.71 0 0 0 807.71)
(873.345 0 0 0 873.345 0 0 0 873.345)
(944.084 0 0 0 944.084 0 0 0 944.084)
(1019.59 0 0 0 1019.59 0 0 0 1019.59)
(1099.37 0 0 0 1099.37 0 0 0 1099.37)
(1183.73 0 0 0 1183.73 0 0 0 1183.73)
(1272.22 0 0 0 1272.22 0 0 0 1272.22)
(1361.55 0 0 0 1361.55 0 0 0 1361.55)
(1449.39 0 0 0 1449.39 0 0 0 1449.39)
(1534.65 0 0 0 1534.65 0 0 0 1534.65)
(1617.19 0 0 0 1617.19 0 0 0 1617.19)
(1697.26 0 0 0 1697.26 0 0 0 1697.26)
(1775.13 0 0 0 1775.13 0 0 0 1775.13)
(1850.99 0 0 0 1850.99 0 0 0 1850.99)
(1925.05 0 0 0 1925.05 0 0 0 1925.05)
(1997.45 0 0 0 1997.45 0 0 0 1997.45)
(2068.35 0 0 0 2068.35 0 0 0 2068.35)
(2137.86 0 0 0 2137.86 0 0 0 2137.86)
(2206.1 0 0 0 2206.1 0 0 0 2206.1)
(2273.16 0 0 0 2273.16 0 0 0 2273.16)
(2339.12 0 0 0 2339.12 0 0 0 2339.12)
(2404.07 0 0 0 2404.07 0 0 0 2404.07)
(2468.07 0 0 0 2468.07 0 0 0 2468.07)
(2531.18 0 0 0 2531.18 0 0 0 2531.18)
(2593.45 0 0 0 2593.45 0 0 0 2593.45)
(2654.95 0 0 0 2654.95 0 0 0 2654.95)
(2715.71 0 0 0 2715.71 0 0 0 2715.71)
(2775.77 0 0 0 2775.77 0 0 0 2775.77)
(2835.2 0 0 0 2835.2 0 0 0 2835.2)
(2894.07 0 0 0 2894.07 0 0 0 2894.07)
(2952.45 0 0 0 2952.45 0 0 0 2952.45)
(3010.37 0 0 0 3010.37 0 0 0 3010.37)
(3067.85 0 0 0 3067.85 0 0 0 3067.85)
(3124.92 0 0 0 3124.92 0 0 0 3124.92)
(3181.59 0 0 0 3181.59 0 0 0 3181.59)
(3237.89 0 0 0 3237.89 0 0 0 3237.89)
(3293.82 0 0 0 3293.82 0 0 0 3293.82)
(3349.41 0 0 0 3349.41 0 0 0 3349.41)
(3404.67 0 0 0 3404.67 0 0 0 3404.67)
(3459.61 0 0 0 3459.61 0 0 0 3459.61)
(3514.24 0 0 0 3514.24 0 0 0 3514.24)
(3568.57 0 0 0 3568.57 0 0 0 3568.57)
(3622.72 0 0 0 3622.72 0 0 0 3622.72)
(3686.66 0 0 0 3686.66 0 0 0 3686.66)
(3787.53 0 0 0 3787.53 0 0 0 3787.53)
(3888.07 0 0 0 3888.07 0 0 0 3888.07)
(3988.48 0 0 0 3988.48 0 0 0 3988.48)
(4089.14 0 0 0 4089.14 0 0 0 4089.14)
(4190.63 0 0 0 4190.63 0 0 0 4190.63)
(4290.41 0 0 0 4290.41 0 0 0 4290.41)
(4403.72 0 0 0 4403.72 0 0 0 4403.72)
)
;

boundaryField
{
    inlet
    {
        type            zeroGradient;
    }
    outlet
    {
        type            zeroGradient;
    }
    fixedWalls
    {
        type            zeroGradient;
    }
}


// ************************************************************************* //
