/*--------------------------------*- C++ -*----------------------------------*\
| =========                 |                                                 |
| \\      /  F ield         | OpenFOAM: The Open Source CFD Toolbox           |
|  \\    /   O peration     | Version:  2406                                  |
|   \\  /    A nd           | Website:  www.openfoam.com                      |
|    \\/     M anipulation  |                                                 |
\*---------------------------------------------------------------------------*/
FoamFile
{
    version     2.0;
    format      ascii;
    arch        "LSB;label=32;scalar=64";
    class       volTensorField;
    location    "30/fluidRegion";
    object      KdTotU;
}
// * * * * * * * * * * * * * * * * * * * * * * * * * * * * * * * * * * * * * //

dimensions      [1 -2 -2 0 0 0 0];

internalField   nonuniform List<tensor> 
75
(
(539.499 0 0 0 539.499 0 0 0 539.499)
(539.499 0 0 0 539.499 0 0 0 539.499)
(539.499 0 0 0 539.499 0 0 0 539.499)
(539.499 0 0 0 539.499 0 0 0 539.499)
(539.499 0 0 0 539.499 0 0 0 539.499)
(538.91 0 0 0 538.91 0 0 0 538.91)
(538.683 0 0 0 538.683 0 0 0 538.683)
(538.488 0 0 0 538.488 0 0 0 538.488)
(538.324 0 0 0 538.324 0 0 0 538.324)
(538.191 0 0 0 538.191 0 0 0 538.191)
(538.089 0 0 0 538.089 0 0 0 538.089)
(538.016 0 0 0 538.016 0 0 0 538.016)
(537.974 0 0 0 537.974 0 0 0 537.974)
(537.96 0 0 0 537.96 0 0 0 537.96)
(552.206 0 0 0 552.206 0 0 0 552.206)
(577.135 0 0 0 577.135 0 0 0 577.135)
(609.757 0 0 0 609.757 0 0 0 609.757)
(649.565 0 0 0 649.565 0 0 0 649.565)
(696.435 0 0 0 696.435 0 0 0 696.435)
(750.725 0 0 0 750.725 0 0 0 750.725)
(813.022 0 0 0 813.022 0 0 0 813.022)
(884.068 0 0 0 884.068 0 0 0 884.068)
(964.689 0 0 0 964.689 0 0 0 964.689)
(1055.73 0 0 0 1055.73 0 0 0 1055.73)
(1157.97 0 0 0 1157.97 0 0 0 1157.97)
(1272.09 0 0 0 1272.09 0 0 0 1272.09)
(1398.52 0 0 0 1398.52 0 0 0 1398.52)
(1537.43 0 0 0 1537.43 0 0 0 1537.43)
(1688.7 0 0 0 1688.7 0 0 0 1688.7)
(1853.53 0 0 0 1853.53 0 0 0 1853.53)
(2031.82 0 0 0 2031.82 0 0 0 2031.82)
(2217.83 0 0 0 2217.83 0 0 0 2217.83)
(2406.7 0 0 0 2406.7 0 0 0 2406.7)
(2595.67 0 0 0 2595.67 0 0 0 2595.67)
(2783.76 0 0 0 2783.76 0 0 0 2783.76)
(2970.91 0 0 0 2970.91 0 0 0 2970.91)
(3157.15 0 0 0 3157.15 0 0 0 3157.15)
(3342.51 0 0 0 3342.51 0 0 0 3342.51)
(3527.02 0 0 0 3527.02 0 0 0 3527.02)
(3710.73 0 0 0 3710.73 0 0 0 3710.73)
(3893.66 0 0 0 3893.66 0 0 0 3893.66)
(4075.85 0 0 0 4075.85 0 0 0 4075.85)
(4257.31 0 0 0 4257.31 0 0 0 4257.31)
(4438.08 0 0 0 4438.08 0 0 0 4438.08)
(4618.16 0 0 0 4618.16 0 0 0 4618.16)
(4797.58 0 0 0 4797.58 0 0 0 4797.58)
(4976.34 0 0 0 4976.34 0 0 0 4976.34)
(5154.45 0 0 0 5154.45 0 0 0 5154.45)
(5331.92 0 0 0 5331.92 0 0 0 5331.92)
(5508.75 0 0 0 5508.75 0 0 0 5508.75)
(5684.95 0 0 0 5684.95 0 0 0 5684.95)
(5860.52 0 0 0 5860.52 0 0 0 5860.52)
(6035.5 0 0 0 6035.5 0 0 0 6035.5)
(6210.07 0 0 0 6210.07 0 0 0 6210.07)
(6384.31 0 0 0 6384.31 0 0 0 6384.31)
(6558.21 0 0 0 6558.21 0 0 0 6558.21)
(6731.77 0 0 0 6731.77 0 0 0 6731.77)
(6904.97 0 0 0 6904.97 0 0 0 6904.97)
(7077.79 0 0 0 7077.79 0 0 0 7077.79)
(7250.23 0 0 0 7250.23 0 0 0 7250.23)
(7422.27 0 0 0 7422.27 0 0 0 7422.27)
(7593.88 0 0 0 7593.88 0 0 0 7593.88)
(7765.07 0 0 0 7765.07 0 0 0 7765.07)
(7935.8 0 0 0 7935.8 0 0 0 7935.8)
(8106.08 0 0 0 8106.08 0 0 0 8106.08)
(8275.88 0 0 0 8275.88 0 0 0 8275.88)
(8445.17 0 0 0 8445.17 0 0 0 8445.17)
(8634.71 0 0 0 8634.71 0 0 0 8634.71)
(8905.66 0 0 0 8905.66 0 0 0 8905.66)
(9172 0 0 0 9172 0 0 0 9172)
(9436.32 0 0 0 9436.32 0 0 0 9436.32)
(9700.12 0 0 0 9700.12 0 0 0 9700.12)
(9965.59 0 0 0 9965.59 0 0 0 9965.59)
(10225 0 0 0 10225 0 0 0 10225)
(10525.2 0 0 0 10525.2 0 0 0 10525.2)
)
;

boundaryField
{
    inlet
    {
        type            zeroGradient;
    }
    outlet
    {
        type            zeroGradient;
    }
    fixedWalls
    {
        type            zeroGradient;
    }
}


// ************************************************************************* //
