/*--------------------------------*- C++ -*----------------------------------*\
| =========                 |                                                 |
| \\      /  F ield         | OpenFOAM: The Open Source CFD Toolbox           |
|  \\    /   O peration     | Version:  2406                                  |
|   \\  /    A nd           | Website:  www.openfoam.com                      |
|    \\/     M anipulation  |                                                 |
\*---------------------------------------------------------------------------*/
FoamFile
{
    version     2.0;
    format      ascii;
    arch        "LSB;label=32;scalar=64";
    class       volScalarField;
    location    "30/fluidRegion";
    object      p_rgh;
}
// * * * * * * * * * * * * * * * * * * * * * * * * * * * * * * * * * * * * * //

dimensions      [1 -1 -2 0 0 0 0];

internalField   nonuniform List<scalar> 
75
(
7.21503e+06
7.215e+06
7.21498e+06
7.21496e+06
7.21494e+06
7.21492e+06
7.21489e+06
7.21487e+06
7.21484e+06
7.21482e+06
7.21479e+06
7.21477e+06
7.21474e+06
7.21472e+06
7.21469e+06
7.21466e+06
7.21463e+06
7.2146e+06
7.21456e+06
7.21452e+06
7.21447e+06
7.21442e+06
7.21436e+06
7.2143e+06
7.21423e+06
7.21415e+06
7.21407e+06
7.21398e+06
7.21388e+06
7.21377e+06
7.21365e+06
7.21352e+06
7.21338e+06
7.21323e+06
7.21307e+06
7.21291e+06
7.21274e+06
7.21256e+06
7.21237e+06
7.21218e+06
7.21198e+06
7.21176e+06
7.21155e+06
7.21132e+06
7.21108e+06
7.21084e+06
7.21059e+06
7.21033e+06
7.21007e+06
7.20979e+06
7.20951e+06
7.20922e+06
7.20892e+06
7.20862e+06
7.2083e+06
7.20798e+06
7.20765e+06
7.20731e+06
7.20697e+06
7.20661e+06
7.20625e+06
7.20588e+06
7.2055e+06
7.20512e+06
7.20473e+06
7.20432e+06
7.20391e+06
7.2035e+06
7.20307e+06
7.20263e+06
7.20218e+06
7.20172e+06
7.20124e+06
7.20076e+06
7.20026e+06
)
;

boundaryField
{
    inlet
    {
        type            fixedFluxPressure;
        gradient        uniform 1068.15;
        value           uniform 7.21504e+06;
    }
    outlet
    {
        type            fixedValue;
        value           uniform 7.2e+06;
    }
    fixedWalls
    {
        type            fixedFluxPressure;
        gradient        nonuniform List<scalar> 
300
(
0
0
-4.08754e-17
-4.08754e-17
3.87499e-17
7.15469e-17
-5.49516e-20
-3.28061e-17
0
0
0
0
0
0
0
0
0
0
0
0
0
0
0
0
0
0
0
0
0
0
0
0
0
0
0
0
0
0
0
0
0
0
0
0
0
0
0
0
0
5.05665e-16
-8.02156e-18
-4.91163e-16
0
0
0
0
5.05815e-16
-1.46422e-17
-4.95166e-16
0
0
0
0
0
5.05654e-16
-1.36046e-17
-5.04488e-16
0
0
0
0
5.00336e-16
-1.30419e-17
-4.95764e-16
0
0
0
4.08754e-17
4.08754e-17
-3.87499e-17
-7.15469e-17
5.49516e-20
3.28061e-17
0
0
0
0
0
0
0
0
0
0
0
0
0
0
0
0
0
0
0
0
0
0
0
0
0
0
0
0
0
0
0
0
0
0
0
0
0
0
0
0
0
-5.05665e-16
8.02156e-18
4.91163e-16
0
0
0
0
-5.05815e-16
1.46422e-17
4.95166e-16
0
0
0
0
0
-5.05654e-16
1.36046e-17
5.04488e-16
0
0
0
0
-5.00336e-16
1.30419e-17
4.95764e-16
0
0
0
-4.08754e-17
-4.08754e-17
3.87499e-17
7.15469e-17
-5.49516e-20
-3.28061e-17
0
0
0
0
0
0
0
0
0
0
0
0
0
0
0
0
0
0
0
0
0
0
0
0
0
0
0
0
0
0
0
0
0
0
0
0
0
0
0
0
0
5.05665e-16
-8.02156e-18
-4.91163e-16
0
0
0
0
5.05815e-16
-1.46422e-17
-4.95166e-16
0
0
0
0
0
5.05654e-16
-1.36046e-17
-5.04488e-16
0
0
0
0
5.00336e-16
-1.30419e-17
-4.95764e-16
0
0
0
4.08754e-17
4.08754e-17
-3.87499e-17
-7.15469e-17
5.49516e-20
3.28061e-17
0
0
0
0
0
0
0
0
0
0
0
0
0
0
0
0
0
0
0
0
0
0
0
0
0
0
0
0
0
0
0
0
0
0
0
0
0
0
0
0
0
-5.05665e-16
8.02156e-18
4.91163e-16
0
0
0
0
-5.05815e-16
1.46422e-17
4.95166e-16
0
0
0
0
0
-5.05654e-16
1.36046e-17
5.04488e-16
0
0
0
0
-5.00336e-16
1.30419e-17
4.95764e-16
0
)
;
        value           nonuniform List<scalar> 
300
(
7.21503e+06
7.215e+06
7.21498e+06
7.21496e+06
7.21494e+06
7.21492e+06
7.21489e+06
7.21487e+06
7.21484e+06
7.21482e+06
7.21479e+06
7.21477e+06
7.21474e+06
7.21472e+06
7.21469e+06
7.21466e+06
7.21463e+06
7.2146e+06
7.21456e+06
7.21452e+06
7.21447e+06
7.21442e+06
7.21436e+06
7.2143e+06
7.21423e+06
7.21415e+06
7.21407e+06
7.21398e+06
7.21388e+06
7.21377e+06
7.21365e+06
7.21352e+06
7.21338e+06
7.21323e+06
7.21307e+06
7.21291e+06
7.21274e+06
7.21256e+06
7.21237e+06
7.21218e+06
7.21198e+06
7.21176e+06
7.21155e+06
7.21132e+06
7.21108e+06
7.21084e+06
7.21059e+06
7.21033e+06
7.21007e+06
7.20979e+06
7.20951e+06
7.20922e+06
7.20892e+06
7.20862e+06
7.2083e+06
7.20798e+06
7.20765e+06
7.20731e+06
7.20697e+06
7.20661e+06
7.20625e+06
7.20588e+06
7.2055e+06
7.20512e+06
7.20473e+06
7.20432e+06
7.20391e+06
7.2035e+06
7.20307e+06
7.20263e+06
7.20218e+06
7.20172e+06
7.20124e+06
7.20076e+06
7.20026e+06
7.21503e+06
7.215e+06
7.21498e+06
7.21496e+06
7.21494e+06
7.21492e+06
7.21489e+06
7.21487e+06
7.21484e+06
7.21482e+06
7.21479e+06
7.21477e+06
7.21474e+06
7.21472e+06
7.21469e+06
7.21466e+06
7.21463e+06
7.2146e+06
7.21456e+06
7.21452e+06
7.21447e+06
7.21442e+06
7.21436e+06
7.2143e+06
7.21423e+06
7.21415e+06
7.21407e+06
7.21398e+06
7.21388e+06
7.21377e+06
7.21365e+06
7.21352e+06
7.21338e+06
7.21323e+06
7.21307e+06
7.21291e+06
7.21274e+06
7.21256e+06
7.21237e+06
7.21218e+06
7.21198e+06
7.21176e+06
7.21155e+06
7.21132e+06
7.21108e+06
7.21084e+06
7.21059e+06
7.21033e+06
7.21007e+06
7.20979e+06
7.20951e+06
7.20922e+06
7.20892e+06
7.20862e+06
7.2083e+06
7.20798e+06
7.20765e+06
7.20731e+06
7.20697e+06
7.20661e+06
7.20625e+06
7.20588e+06
7.2055e+06
7.20512e+06
7.20473e+06
7.20432e+06
7.20391e+06
7.2035e+06
7.20307e+06
7.20263e+06
7.20218e+06
7.20172e+06
7.20124e+06
7.20076e+06
7.20026e+06
7.21503e+06
7.215e+06
7.21498e+06
7.21496e+06
7.21494e+06
7.21492e+06
7.21489e+06
7.21487e+06
7.21484e+06
7.21482e+06
7.21479e+06
7.21477e+06
7.21474e+06
7.21472e+06
7.21469e+06
7.21466e+06
7.21463e+06
7.2146e+06
7.21456e+06
7.21452e+06
7.21447e+06
7.21442e+06
7.21436e+06
7.2143e+06
7.21423e+06
7.21415e+06
7.21407e+06
7.21398e+06
7.21388e+06
7.21377e+06
7.21365e+06
7.21352e+06
7.21338e+06
7.21323e+06
7.21307e+06
7.21291e+06
7.21274e+06
7.21256e+06
7.21237e+06
7.21218e+06
7.21198e+06
7.21176e+06
7.21155e+06
7.21132e+06
7.21108e+06
7.21084e+06
7.21059e+06
7.21033e+06
7.21007e+06
7.20979e+06
7.20951e+06
7.20922e+06
7.20892e+06
7.20862e+06
7.2083e+06
7.20798e+06
7.20765e+06
7.20731e+06
7.20697e+06
7.20661e+06
7.20625e+06
7.20588e+06
7.2055e+06
7.20512e+06
7.20473e+06
7.20432e+06
7.20391e+06
7.2035e+06
7.20307e+06
7.20263e+06
7.20218e+06
7.20172e+06
7.20124e+06
7.20076e+06
7.20026e+06
7.21503e+06
7.215e+06
7.21498e+06
7.21496e+06
7.21494e+06
7.21492e+06
7.21489e+06
7.21487e+06
7.21484e+06
7.21482e+06
7.21479e+06
7.21477e+06
7.21474e+06
7.21472e+06
7.21469e+06
7.21466e+06
7.21463e+06
7.2146e+06
7.21456e+06
7.21452e+06
7.21447e+06
7.21442e+06
7.21436e+06
7.2143e+06
7.21423e+06
7.21415e+06
7.21407e+06
7.21398e+06
7.21388e+06
7.21377e+06
7.21365e+06
7.21352e+06
7.21338e+06
7.21323e+06
7.21307e+06
7.21291e+06
7.21274e+06
7.21256e+06
7.21237e+06
7.21218e+06
7.21198e+06
7.21176e+06
7.21155e+06
7.21132e+06
7.21108e+06
7.21084e+06
7.21059e+06
7.21033e+06
7.21007e+06
7.20979e+06
7.20951e+06
7.20922e+06
7.20892e+06
7.20862e+06
7.2083e+06
7.20798e+06
7.20765e+06
7.20731e+06
7.20697e+06
7.20661e+06
7.20625e+06
7.20588e+06
7.2055e+06
7.20512e+06
7.20473e+06
7.20432e+06
7.20391e+06
7.2035e+06
7.20307e+06
7.20263e+06
7.20218e+06
7.20172e+06
7.20124e+06
7.20076e+06
7.20026e+06
)
;
    }
}


// ************************************************************************* //
