/*--------------------------------*- C++ -*----------------------------------*\
| =========                 |                                                 |
| \\      /  F ield         | OpenFOAM: The Open Source CFD Toolbox           |
|  \\    /   O peration     | Version:  2406                                  |
|   \\  /    A nd           | Website:  www.openfoam.com                      |
|    \\/     M anipulation  |                                                 |
\*---------------------------------------------------------------------------*/
FoamFile
{
    version     2.0;
    format      ascii;
    arch        "LSB;label=32;scalar=64";
    class       volScalarField;
    location    "0.6/fluidRegion";
    object      alphaRhoMagU.vapour;
}
// * * * * * * * * * * * * * * * * * * * * * * * * * * * * * * * * * * * * * //

dimensions      [1 -2 -1 0 0 0 0];

internalField   nonuniform List<scalar> 
70
(
0
0
0
0.622502
2.43576
5.24458
8.79764
12.66
16.5414
20.4409
24.5679
29.8748
35.7902
41.8323
47.8591
53.8247
59.7058
65.4914
71.1731
76.744
82.1987
87.5317
92.7096
97.6891
102.465
107.043
111.433
115.645
119.687
123.569
127.298
130.881
134.325
137.634
140.814
143.87
146.807
149.629
152.34
154.943
157.44
159.836
162.131
164.326
166.421
168.414
170.302
172.079
173.734
175.256
176.627
177.83
178.846
179.663
180.279
180.72
181.064
181.376
181.675
181.961
182.233
182.491
182.735
182.963
183.177
183.375
183.557
183.723
183.869
184.037
)
;

boundaryField
{
    inlet
    {
        type            calculated;
        value           uniform 0;
    }
    outlet
    {
        type            calculated;
        value           uniform 183.995;
    }
    fixedWalls
    {
        type            calculated;
        value           nonuniform List<scalar> 
280
(
0
0
0
0.622502
2.43576
5.24458
8.79764
12.66
16.5414
20.4409
24.5679
29.8748
35.7902
41.8323
47.8591
53.8247
59.7058
65.4914
71.1731
76.744
82.1987
87.5317
92.7096
97.6891
102.465
107.043
111.433
115.645
119.687
123.569
127.298
130.881
134.325
137.634
140.814
143.87
146.807
149.629
152.34
154.943
157.44
159.836
162.131
164.326
166.421
168.414
170.302
172.079
173.734
175.256
176.627
177.83
178.846
179.663
180.279
180.72
181.064
181.376
181.675
181.961
182.233
182.491
182.735
182.963
183.177
183.375
183.557
183.723
183.869
184.037
0
0
0
0.622502
2.43576
5.24458
8.79764
12.66
16.5414
20.4409
24.5679
29.8748
35.7902
41.8323
47.8591
53.8247
59.7058
65.4914
71.1731
76.744
82.1987
87.5317
92.7096
97.6891
102.465
107.043
111.433
115.645
119.687
123.569
127.298
130.881
134.325
137.634
140.814
143.87
146.807
149.629
152.34
154.943
157.44
159.836
162.131
164.326
166.421
168.414
170.302
172.079
173.734
175.256
176.627
177.83
178.846
179.663
180.279
180.72
181.064
181.376
181.675
181.961
182.233
182.491
182.735
182.963
183.177
183.375
183.557
183.723
183.869
184.037
0
0
0
0.622502
2.43576
5.24458
8.79764
12.66
16.5414
20.4409
24.5679
29.8748
35.7902
41.8323
47.8591
53.8247
59.7058
65.4914
71.1731
76.744
82.1987
87.5317
92.7096
97.6891
102.465
107.043
111.433
115.645
119.687
123.569
127.298
130.881
134.325
137.634
140.814
143.87
146.807
149.629
152.34
154.943
157.44
159.836
162.131
164.326
166.421
168.414
170.302
172.079
173.734
175.256
176.627
177.83
178.846
179.663
180.279
180.72
181.064
181.376
181.675
181.961
182.233
182.491
182.735
182.963
183.177
183.375
183.557
183.723
183.869
184.037
0
0
0
0.622502
2.43576
5.24458
8.79764
12.66
16.5414
20.4409
24.5679
29.8748
35.7902
41.8323
47.8591
53.8247
59.7058
65.4914
71.1731
76.744
82.1987
87.5317
92.7096
97.6891
102.465
107.043
111.433
115.645
119.687
123.569
127.298
130.881
134.325
137.634
140.814
143.87
146.807
149.629
152.34
154.943
157.44
159.836
162.131
164.326
166.421
168.414
170.302
172.079
173.734
175.256
176.627
177.83
178.846
179.663
180.279
180.72
181.064
181.376
181.675
181.961
182.233
182.491
182.735
182.963
183.177
183.375
183.557
183.723
183.869
184.037
)
;
    }
}


// ************************************************************************* //
