/*--------------------------------*- C++ -*----------------------------------*\
| =========                 |                                                 |
| \\      /  F ield         | OpenFOAM: The Open Source CFD Toolbox           |
|  \\    /   O peration     | Version:  2406                                  |
|   \\  /    A nd           | Website:  www.openfoam.com                      |
|    \\/     M anipulation  |                                                 |
\*---------------------------------------------------------------------------*/
FoamFile
{
    version     2.0;
    format      ascii;
    arch        "LSB;label=32;scalar=64";
    class       volScalarField;
    location    "0.6/fluidRegion";
    object      dgdt.vapour;
}
// * * * * * * * * * * * * * * * * * * * * * * * * * * * * * * * * * * * * * //

dimensions      [0 0 -1 0 0 0 0];

internalField   nonuniform List<scalar> 
70
(
-0
-0
-0
1.08893
3.07746
4.64248
5.83292
6.22442
6.19591
6.26115
6.64193
9.10969
9.61029
9.72
9.687
9.57815
9.44087
9.28485
9.11507
8.93472
8.74615
8.55132
8.28402
7.94556
7.62544
7.31252
7.01724
6.73823
6.47292
6.22269
5.98418
5.75633
5.53827
5.32928
5.12867
4.9358
4.75009
4.57094
4.39776
4.22988
4.06656
3.9069
3.74978
3.59375
3.43686
3.27658
3.10953
2.93143
2.73695
2.52018
2.27563
2.00072
1.69608
1.37355
1.05623
0.781092
0.668715
0.652418
0.633496
0.612877
0.591161
0.56869
0.545635
0.522078
0.498049
0.473542
0.448541
0.422977
0.397008
0.437855
)
;

boundaryField
{
    inlet
    {
        type            calculated;
        value           uniform -0;
    }
    outlet
    {
        type            calculated;
        value           uniform 0.437855;
    }
    fixedWalls
    {
        type            calculated;
        value           nonuniform List<scalar> 
280
(
-0
-0
-0
1.08893
3.07746
4.64248
5.83292
6.22442
6.19591
6.26115
6.64193
9.10969
9.61029
9.72
9.687
9.57815
9.44087
9.28485
9.11507
8.93472
8.74615
8.55132
8.28402
7.94556
7.62544
7.31252
7.01724
6.73823
6.47292
6.22269
5.98418
5.75633
5.53827
5.32928
5.12867
4.9358
4.75009
4.57094
4.39776
4.22988
4.06656
3.9069
3.74978
3.59375
3.43686
3.27658
3.10953
2.93143
2.73695
2.52018
2.27563
2.00072
1.69608
1.37355
1.05623
0.781092
0.668715
0.652418
0.633496
0.612877
0.591161
0.56869
0.545635
0.522078
0.498049
0.473542
0.448541
0.422977
0.397008
0.437855
-0
-0
-0
1.08893
3.07746
4.64248
5.83292
6.22442
6.19591
6.26115
6.64193
9.10969
9.61029
9.72
9.687
9.57815
9.44087
9.28485
9.11507
8.93472
8.74615
8.55132
8.28402
7.94556
7.62544
7.31252
7.01724
6.73823
6.47292
6.22269
5.98418
5.75633
5.53827
5.32928
5.12867
4.9358
4.75009
4.57094
4.39776
4.22988
4.06656
3.9069
3.74978
3.59375
3.43686
3.27658
3.10953
2.93143
2.73695
2.52018
2.27563
2.00072
1.69608
1.37355
1.05623
0.781092
0.668715
0.652418
0.633496
0.612877
0.591161
0.56869
0.545635
0.522078
0.498049
0.473542
0.448541
0.422977
0.397008
0.437855
-0
-0
-0
1.08893
3.07746
4.64248
5.83292
6.22442
6.19591
6.26115
6.64193
9.10969
9.61029
9.72
9.687
9.57815
9.44087
9.28485
9.11507
8.93472
8.74615
8.55132
8.28402
7.94556
7.62544
7.31252
7.01724
6.73823
6.47292
6.22269
5.98418
5.75633
5.53827
5.32928
5.12867
4.9358
4.75009
4.57094
4.39776
4.22988
4.06656
3.9069
3.74978
3.59375
3.43686
3.27658
3.10953
2.93143
2.73695
2.52018
2.27563
2.00072
1.69608
1.37355
1.05623
0.781092
0.668715
0.652418
0.633496
0.612877
0.591161
0.56869
0.545635
0.522078
0.498049
0.473542
0.448541
0.422977
0.397008
0.437855
-0
-0
-0
1.08893
3.07746
4.64248
5.83292
6.22442
6.19591
6.26115
6.64193
9.10969
9.61029
9.72
9.687
9.57815
9.44087
9.28485
9.11507
8.93472
8.74615
8.55132
8.28402
7.94556
7.62544
7.31252
7.01724
6.73823
6.47292
6.22269
5.98418
5.75633
5.53827
5.32928
5.12867
4.9358
4.75009
4.57094
4.39776
4.22988
4.06656
3.9069
3.74978
3.59375
3.43686
3.27658
3.10953
2.93143
2.73695
2.52018
2.27563
2.00072
1.69608
1.37355
1.05623
0.781092
0.668715
0.652418
0.633496
0.612877
0.591161
0.56869
0.545635
0.522078
0.498049
0.473542
0.448541
0.422977
0.397008
0.437855
)
;
    }
}


// ************************************************************************* //
