/*--------------------------------*- C++ -*----------------------------------*\
| =========                 |                                                 |
| \\      /  F ield         | OpenFOAM: The Open Source CFD Toolbox           |
|  \\    /   O peration     | Version:  2406                                  |
|   \\  /    A nd           | Website:  www.openfoam.com                      |
|    \\/     M anipulation  |                                                 |
\*---------------------------------------------------------------------------*/
FoamFile
{
    version     2.0;
    format      ascii;
    arch        "LSB;label=32;scalar=64";
    class       volTensorField;
    location    "0.6/fluidRegion";
    object      Kd.liquid.structure;
}
// * * * * * * * * * * * * * * * * * * * * * * * * * * * * * * * * * * * * * //

dimensions      [1 -3 -1 0 0 0 0];

internalField   nonuniform List<tensor> 
70
(
(1061.22 0 0 0 1061.22 0 0 0 1061.22)
(1059.79 0 0 0 1059.79 0 0 0 1059.79)
(1057.93 0 0 0 1057.93 0 0 0 1057.93)
(1136.29 0 0 0 1136.29 0 0 0 1136.29)
(1326.93 0 0 0 1326.93 0 0 0 1326.93)
(1588.64 0 0 0 1588.64 0 0 0 1588.64)
(1885.86 0 0 0 1885.86 0 0 0 1885.86)
(2180.14 0 0 0 2180.14 0 0 0 2180.14)
(2451.59 0 0 0 2451.59 0 0 0 2451.59)
(2703.69 0 0 0 2703.69 0 0 0 2703.69)
(2951.02 0 0 0 2951.02 0 0 0 2951.02)
(3248.21 0 0 0 3248.21 0 0 0 3248.21)
(3563.19 0 0 0 3563.19 0 0 0 3563.19)
(3863.73 0 0 0 3863.73 0 0 0 3863.73)
(4144.91 0 0 0 4144.91 0 0 0 4144.91)
(4407.73 0 0 0 4407.73 0 0 0 4407.73)
(4653.91 0 0 0 4653.91 0 0 0 4653.91)
(4885.38 0 0 0 4885.38 0 0 0 4885.38)
(5103.72 0 0 0 5103.72 0 0 0 5103.72)
(5310.26 0 0 0 5310.26 0 0 0 5310.26)
(5506.11 0 0 0 5506.11 0 0 0 5506.11)
(5692.22 0 0 0 5692.22 0 0 0 5692.22)
(5868.52 0 0 0 5868.52 0 0 0 5868.52)
(6034.3 0 0 0 6034.3 0 0 0 6034.3)
(6189.96 0 0 0 6189.96 0 0 0 6189.96)
(6336.44 0 0 0 6336.44 0 0 0 6336.44)
(6474.57 0 0 0 6474.57 0 0 0 6474.57)
(6605.15 0 0 0 6605.15 0 0 0 6605.15)
(6728.83 0 0 0 6728.83 0 0 0 6728.83)
(6846.19 0 0 0 6846.19 0 0 0 6846.19)
(6957.73 0 0 0 6957.73 0 0 0 6957.73)
(7063.89 0 0 0 7063.89 0 0 0 7063.89)
(7165.01 0 0 0 7165.01 0 0 0 7165.01)
(7261.43 0 0 0 7261.43 0 0 0 7261.43)
(7353.44 0 0 0 7353.44 0 0 0 7353.44)
(7441.3 0 0 0 7441.3 0 0 0 7441.3)
(7525.23 0 0 0 7525.23 0 0 0 7525.23)
(7605.46 0 0 0 7605.46 0 0 0 7605.46)
(7682.17 0 0 0 7682.17 0 0 0 7682.17)
(7755.52 0 0 0 7755.52 0 0 0 7755.52)
(7825.67 0 0 0 7825.67 0 0 0 7825.67)
(7892.75 0 0 0 7892.75 0 0 0 7892.75)
(7956.86 0 0 0 7956.86 0 0 0 7956.86)
(8018.08 0 0 0 8018.08 0 0 0 8018.08)
(8076.47 0 0 0 8076.47 0 0 0 8076.47)
(8132.05 0 0 0 8132.05 0 0 0 8132.05)
(8184.78 0 0 0 8184.78 0 0 0 8184.78)
(8234.58 0 0 0 8234.58 0 0 0 8234.58)
(8281.29 0 0 0 8281.29 0 0 0 8281.29)
(8324.67 0 0 0 8324.67 0 0 0 8324.67)
(8364.38 0 0 0 8364.38 0 0 0 8364.38)
(8400.04 0 0 0 8400.04 0 0 0 8400.04)
(8431.2 0 0 0 8431.2 0 0 0 8431.2)
(8457.53 0 0 0 8457.53 0 0 0 8457.53)
(8482.22 0 0 0 8482.22 0 0 0 8482.22)
(8505.83 0 0 0 8505.83 0 0 0 8505.83)
(8525.63 0 0 0 8525.63 0 0 0 8525.63)
(8544.63 0 0 0 8544.63 0 0 0 8544.63)
(8563.41 0 0 0 8563.41 0 0 0 8563.41)
(8581.85 0 0 0 8581.85 0 0 0 8581.85)
(8599.88 0 0 0 8599.88 0 0 0 8599.88)
(8617.43 0 0 0 8617.43 0 0 0 8617.43)
(8634.47 0 0 0 8634.47 0 0 0 8634.47)
(8650.95 0 0 0 8650.95 0 0 0 8650.95)
(8666.81 0 0 0 8666.81 0 0 0 8666.81)
(8682.02 0 0 0 8682.02 0 0 0 8682.02)
(8696.53 0 0 0 8696.53 0 0 0 8696.53)
(8710.33 0 0 0 8710.33 0 0 0 8710.33)
(8723.1 0 0 0 8723.1 0 0 0 8723.1)
(8738.03 0 0 0 8738.03 0 0 0 8738.03)
)
;

boundaryField
{
    inlet
    {
        type            zeroGradient;
    }
    outlet
    {
        type            zeroGradient;
    }
    fixedWalls
    {
        type            zeroGradient;
    }
}


// ************************************************************************* //
