/*--------------------------------*- C++ -*----------------------------------*\
| =========                 |                                                 |
| \\      /  F ield         | OpenFOAM: The Open Source CFD Toolbox           |
|  \\    /   O peration     | Version:  2406                                  |
|   \\  /    A nd           | Website:  www.openfoam.com                      |
|    \\/     M anipulation  |                                                 |
\*---------------------------------------------------------------------------*/
FoamFile
{
    version     2.0;
    format      ascii;
    arch        "LSB;label=32;scalar=64";
    class       volTensorField;
    location    "0.6/fluidRegion";
    object      KdTotU;
}
// * * * * * * * * * * * * * * * * * * * * * * * * * * * * * * * * * * * * * //

dimensions      [1 -2 -2 0 0 0 0];

internalField   nonuniform List<tensor> 
70
(
(4734.74 0 0 0 4734.74 0 0 0 4734.74)
(4730.87 0 0 0 4730.87 0 0 0 4730.87)
(4727.08 0 0 0 4727.08 0 0 0 4727.08)
(5104.99 0 0 0 5104.99 0 0 0 5104.99)
(6053.13 0 0 0 6053.13 0 0 0 6053.13)
(7419.77 0 0 0 7419.77 0 0 0 7419.77)
(9056.57 0 0 0 9056.57 0 0 0 9056.57)
(10777.2 0 0 0 10777.2 0 0 0 10777.2)
(12460 0 0 0 12460 0 0 0 12460)
(14106.5 0 0 0 14106.5 0 0 0 14106.5)
(15799.4 0 0 0 15799.4 0 0 0 15799.4)
(17886.9 0 0 0 17886.9 0 0 0 17886.9)
(20215.2 0 0 0 20215.2 0 0 0 20215.2)
(22555.7 0 0 0 22555.7 0 0 0 22555.7)
(24855.6 0 0 0 24855.6 0 0 0 24855.6)
(27099.9 0 0 0 27099.9 0 0 0 27099.9)
(29283.2 0 0 0 29283.2 0 0 0 29283.2)
(31404.8 0 0 0 31404.8 0 0 0 31404.8)
(33464.6 0 0 0 33464.6 0 0 0 33464.6)
(35462.8 0 0 0 35462.8 0 0 0 35462.8)
(37399.8 0 0 0 37399.8 0 0 0 37399.8)
(39276.1 0 0 0 39276.1 0 0 0 39276.1)
(41084.2 0 0 0 41084.2 0 0 0 41084.2)
(42811.1 0 0 0 42811.1 0 0 0 42811.1)
(44454.9 0 0 0 44454.9 0 0 0 44454.9)
(46020 0 0 0 46020 0 0 0 46020)
(47510.8 0 0 0 47510.8 0 0 0 47510.8)
(48932.2 0 0 0 48932.2 0 0 0 48932.2)
(50288.7 0 0 0 50288.7 0 0 0 50288.7)
(51584.3 0 0 0 51584.3 0 0 0 51584.3)
(52822.8 0 0 0 52822.8 0 0 0 52822.8)
(54007.1 0 0 0 54007.1 0 0 0 54007.1)
(55140.3 0 0 0 55140.3 0 0 0 55140.3)
(56225 0 0 0 56225 0 0 0 56225)
(57263.5 0 0 0 57263.5 0 0 0 57263.5)
(58258 0 0 0 58258 0 0 0 58258)
(59210.6 0 0 0 59210.6 0 0 0 59210.6)
(60123.2 0 0 0 60123.2 0 0 0 60123.2)
(60997.3 0 0 0 60997.3 0 0 0 60997.3)
(61834.6 0 0 0 61834.6 0 0 0 61834.6)
(62636.4 0 0 0 62636.4 0 0 0 62636.4)
(63404 0 0 0 63404 0 0 0 63404)
(64138.2 0 0 0 64138.2 0 0 0 64138.2)
(64839.8 0 0 0 64839.8 0 0 0 64839.8)
(65509.2 0 0 0 65509.2 0 0 0 65509.2)
(66146.4 0 0 0 66146.4 0 0 0 66146.4)
(66750.8 0 0 0 66750.8 0 0 0 66750.8)
(67321.1 0 0 0 67321.1 0 0 0 67321.1)
(67855.3 0 0 0 67855.3 0 0 0 67855.3)
(68350.2 0 0 0 68350.2 0 0 0 68350.2)
(68801.8 0 0 0 68801.8 0 0 0 68801.8)
(69205.2 0 0 0 69205.2 0 0 0 69205.2)
(69555.3 0 0 0 69555.3 0 0 0 69555.3)
(69848.1 0 0 0 69848.1 0 0 0 69848.1)
(70109.1 0 0 0 70109.1 0 0 0 70109.1)
(70344.4 0 0 0 70344.4 0 0 0 70344.4)
(70538.9 0 0 0 70538.9 0 0 0 70538.9)
(70724.6 0 0 0 70724.6 0 0 0 70724.6)
(70907.7 0 0 0 70907.7 0 0 0 70907.7)
(71086.3 0 0 0 71086.3 0 0 0 71086.3)
(71259.2 0 0 0 71259.2 0 0 0 71259.2)
(71425.7 0 0 0 71425.7 0 0 0 71425.7)
(71585.4 0 0 0 71585.4 0 0 0 71585.4)
(71738.1 0 0 0 71738.1 0 0 0 71738.1)
(71883.6 0 0 0 71883.6 0 0 0 71883.6)
(72021.6 0 0 0 72021.6 0 0 0 72021.6)
(72151.9 0 0 0 72151.9 0 0 0 72151.9)
(72274.7 0 0 0 72274.7 0 0 0 72274.7)
(72386.6 0 0 0 72386.6 0 0 0 72386.6)
(72520.3 0 0 0 72520.3 0 0 0 72520.3)
)
;

boundaryField
{
    inlet
    {
        type            zeroGradient;
    }
    outlet
    {
        type            zeroGradient;
    }
    fixedWalls
    {
        type            zeroGradient;
    }
}


// ************************************************************************* //
