/*--------------------------------*- C++ -*----------------------------------*\
| =========                 |                                                 |
| \\      /  F ield         | OpenFOAM: The Open Source CFD Toolbox           |
|  \\    /   O peration     | Version:  2406                                  |
|   \\  /    A nd           | Website:  www.openfoam.com                      |
|    \\/     M anipulation  |                                                 |
\*---------------------------------------------------------------------------*/
FoamFile
{
    version     2.0;
    format      ascii;
    arch        "LSB;label=32;scalar=64";
    class       volScalarField;
    location    "0.6/fluidRegion";
    object      p;
}
// * * * * * * * * * * * * * * * * * * * * * * * * * * * * * * * * * * * * * //

dimensions      [1 -1 -2 0 0 0 0];

internalField   nonuniform List<scalar> 
70
(
7.35994e+06
7.35956e+06
7.35918e+06
7.35878e+06
7.35825e+06
7.35751e+06
7.35658e+06
7.3555e+06
7.35433e+06
7.35309e+06
7.35179e+06
7.35039e+06
7.3488e+06
7.34706e+06
7.34523e+06
7.34331e+06
7.34132e+06
7.33925e+06
7.33711e+06
7.3349e+06
7.33262e+06
7.33028e+06
7.32788e+06
7.32543e+06
7.32292e+06
7.32036e+06
7.31776e+06
7.31512e+06
7.31244e+06
7.30971e+06
7.30695e+06
7.30415e+06
7.30131e+06
7.29844e+06
7.29553e+06
7.29259e+06
7.28962e+06
7.28663e+06
7.2836e+06
7.28055e+06
7.27747e+06
7.27436e+06
7.27124e+06
7.26809e+06
7.26492e+06
7.26173e+06
7.25853e+06
7.25531e+06
7.25207e+06
7.24883e+06
7.24558e+06
7.24232e+06
7.23906e+06
7.2358e+06
7.23256e+06
7.22932e+06
7.22608e+06
7.22285e+06
7.21961e+06
7.21637e+06
7.21312e+06
7.20986e+06
7.2066e+06
7.20334e+06
7.20007e+06
7.19679e+06
7.19352e+06
7.19024e+06
7.18695e+06
7.18366e+06
)
;

boundaryField
{
    inlet
    {
        type            calculated;
        value           uniform 7.36012e+06;
    }
    outlet
    {
        type            calculated;
        value           uniform 7.18202e+06;
    }
    fixedWalls
    {
        type            calculated;
        value           nonuniform List<scalar> 
280
(
7.35994e+06
7.35956e+06
7.35918e+06
7.35878e+06
7.35825e+06
7.35751e+06
7.35658e+06
7.3555e+06
7.35433e+06
7.35309e+06
7.35179e+06
7.35039e+06
7.3488e+06
7.34706e+06
7.34523e+06
7.34331e+06
7.34132e+06
7.33925e+06
7.33711e+06
7.3349e+06
7.33262e+06
7.33028e+06
7.32788e+06
7.32543e+06
7.32292e+06
7.32036e+06
7.31776e+06
7.31512e+06
7.31244e+06
7.30971e+06
7.30695e+06
7.30415e+06
7.30131e+06
7.29844e+06
7.29553e+06
7.29259e+06
7.28962e+06
7.28663e+06
7.2836e+06
7.28055e+06
7.27747e+06
7.27436e+06
7.27124e+06
7.26809e+06
7.26492e+06
7.26173e+06
7.25853e+06
7.25531e+06
7.25207e+06
7.24883e+06
7.24558e+06
7.24232e+06
7.23906e+06
7.2358e+06
7.23256e+06
7.22932e+06
7.22608e+06
7.22285e+06
7.21961e+06
7.21637e+06
7.21312e+06
7.20986e+06
7.2066e+06
7.20334e+06
7.20007e+06
7.19679e+06
7.19352e+06
7.19024e+06
7.18695e+06
7.18366e+06
7.35994e+06
7.35956e+06
7.35918e+06
7.35878e+06
7.35825e+06
7.35751e+06
7.35658e+06
7.3555e+06
7.35433e+06
7.35309e+06
7.35179e+06
7.35039e+06
7.3488e+06
7.34706e+06
7.34523e+06
7.34331e+06
7.34132e+06
7.33925e+06
7.33711e+06
7.3349e+06
7.33262e+06
7.33028e+06
7.32788e+06
7.32543e+06
7.32292e+06
7.32036e+06
7.31776e+06
7.31512e+06
7.31244e+06
7.30971e+06
7.30695e+06
7.30415e+06
7.30131e+06
7.29844e+06
7.29553e+06
7.29259e+06
7.28962e+06
7.28663e+06
7.2836e+06
7.28055e+06
7.27747e+06
7.27436e+06
7.27124e+06
7.26809e+06
7.26492e+06
7.26173e+06
7.25853e+06
7.25531e+06
7.25207e+06
7.24883e+06
7.24558e+06
7.24232e+06
7.23906e+06
7.2358e+06
7.23256e+06
7.22932e+06
7.22608e+06
7.22285e+06
7.21961e+06
7.21637e+06
7.21312e+06
7.20986e+06
7.2066e+06
7.20334e+06
7.20007e+06
7.19679e+06
7.19352e+06
7.19024e+06
7.18695e+06
7.18366e+06
7.35994e+06
7.35956e+06
7.35918e+06
7.35878e+06
7.35825e+06
7.35751e+06
7.35658e+06
7.3555e+06
7.35433e+06
7.35309e+06
7.35179e+06
7.35039e+06
7.3488e+06
7.34706e+06
7.34523e+06
7.34331e+06
7.34132e+06
7.33925e+06
7.33711e+06
7.3349e+06
7.33262e+06
7.33028e+06
7.32788e+06
7.32543e+06
7.32292e+06
7.32036e+06
7.31776e+06
7.31512e+06
7.31244e+06
7.30971e+06
7.30695e+06
7.30415e+06
7.30131e+06
7.29844e+06
7.29553e+06
7.29259e+06
7.28962e+06
7.28663e+06
7.2836e+06
7.28055e+06
7.27747e+06
7.27436e+06
7.27124e+06
7.26809e+06
7.26492e+06
7.26173e+06
7.25853e+06
7.25531e+06
7.25207e+06
7.24883e+06
7.24558e+06
7.24232e+06
7.23906e+06
7.2358e+06
7.23256e+06
7.22932e+06
7.22608e+06
7.22285e+06
7.21961e+06
7.21637e+06
7.21312e+06
7.20986e+06
7.2066e+06
7.20334e+06
7.20007e+06
7.19679e+06
7.19352e+06
7.19024e+06
7.18695e+06
7.18366e+06
7.35994e+06
7.35956e+06
7.35918e+06
7.35878e+06
7.35825e+06
7.35751e+06
7.35658e+06
7.3555e+06
7.35433e+06
7.35309e+06
7.35179e+06
7.35039e+06
7.3488e+06
7.34706e+06
7.34523e+06
7.34331e+06
7.34132e+06
7.33925e+06
7.33711e+06
7.3349e+06
7.33262e+06
7.33028e+06
7.32788e+06
7.32543e+06
7.32292e+06
7.32036e+06
7.31776e+06
7.31512e+06
7.31244e+06
7.30971e+06
7.30695e+06
7.30415e+06
7.30131e+06
7.29844e+06
7.29553e+06
7.29259e+06
7.28962e+06
7.28663e+06
7.2836e+06
7.28055e+06
7.27747e+06
7.27436e+06
7.27124e+06
7.26809e+06
7.26492e+06
7.26173e+06
7.25853e+06
7.25531e+06
7.25207e+06
7.24883e+06
7.24558e+06
7.24232e+06
7.23906e+06
7.2358e+06
7.23256e+06
7.22932e+06
7.22608e+06
7.22285e+06
7.21961e+06
7.21637e+06
7.21312e+06
7.20986e+06
7.2066e+06
7.20334e+06
7.20007e+06
7.19679e+06
7.19352e+06
7.19024e+06
7.18695e+06
7.18366e+06
)
;
    }
}


// ************************************************************************* //
